+ 1 0 2 tcp 40 ------- 0 0.0 3.0 0 0
- 1 0 2 tcp 40 ------- 0 0.0 3.0 0 0
+ 1 1 2 tcp 40 ------- 0 1.0 3.1 0 1
- 1 1 2 tcp 40 ------- 0 1.0 3.1 0 1
r 1.010032 0 2 tcp 40 ------- 0 0.0 3.0 0 0
+ 1.010032 2 3 tcp 40 ------- 0 0.0 3.0 0 0
- 1.010032 2 3 tcp 40 ------- 0 0.0 3.0 0 0
r 1.010032 1 2 tcp 40 ------- 0 1.0 3.1 0 1
+ 1.010032 2 3 tcp 40 ------- 0 1.0 3.1 0 1
- 1.010064 2 3 tcp 40 ------- 0 1.0 3.1 0 1
r 1.020064 2 3 tcp 40 ------- 0 0.0 3.0 0 0
+ 1.020064 3 2 ack 40 ------- 0 3.0 0.0 0 2
- 1.020064 3 2 ack 40 ------- 0 3.0 0.0 0 2
r 1.020096 2 3 tcp 40 ------- 0 1.0 3.1 0 1
+ 1.020096 3 2 ack 40 ------- 0 3.1 1.0 0 3
- 1.020096 3 2 ack 40 ------- 0 3.1 1.0 0 3
r 1.030096 3 2 ack 40 ------- 0 3.0 0.0 0 2
+ 1.030096 2 0 ack 40 ------- 0 3.0 0.0 0 2
- 1.030096 2 0 ack 40 ------- 0 3.0 0.0 0 2
r 1.030128 3 2 ack 40 ------- 0 3.1 1.0 0 3
+ 1.030128 2 1 ack 40 ------- 0 3.1 1.0 0 3
- 1.030128 2 1 ack 40 ------- 0 3.1 1.0 0 3
r 1.040128 2 0 ack 40 ------- 0 3.0 0.0 0 2
+ 1.040128 0 2 tcp 1540 ------- 0 0.0 3.0 1 4
- 1.040128 0 2 tcp 1540 ------- 0 0.0 3.0 1 4
+ 1.040128 0 2 tcp 1540 ------- 0 0.0 3.0 2 5
r 1.04016 2 1 ack 40 ------- 0 3.1 1.0 0 3
+ 1.04016 1 2 tcp 1540 ------- 0 1.0 3.1 1 6
- 1.04016 1 2 tcp 1540 ------- 0 1.0 3.1 1 6
+ 1.04016 1 2 tcp 1540 ------- 0 1.0 3.1 2 7
- 1.04136 0 2 tcp 1540 ------- 0 0.0 3.0 2 5
- 1.041392 1 2 tcp 1540 ------- 0 1.0 3.1 2 7
r 1.05136 0 2 tcp 1540 ------- 0 0.0 3.0 1 4
+ 1.05136 2 3 tcp 1540 ------- 0 0.0 3.0 1 4
- 1.05136 2 3 tcp 1540 ------- 0 0.0 3.0 1 4
r 1.051392 1 2 tcp 1540 ------- 0 1.0 3.1 1 6
+ 1.051392 2 3 tcp 1540 ------- 0 1.0 3.1 1 6
r 1.052592 0 2 tcp 1540 ------- 0 0.0 3.0 2 5
+ 1.052592 2 3 tcp 1540 ------- 0 0.0 3.0 2 5
- 1.052592 2 3 tcp 1540 ------- 0 1.0 3.1 1 6
r 1.052624 1 2 tcp 1540 ------- 0 1.0 3.1 2 7
+ 1.052624 2 3 tcp 1540 ------- 0 1.0 3.1 2 7
- 1.053824 2 3 tcp 1540 ------- 0 0.0 3.0 2 5
- 1.055056 2 3 tcp 1540 ------- 0 1.0 3.1 2 7
r 1.062592 2 3 tcp 1540 ------- 0 0.0 3.0 1 4
+ 1.062592 3 2 ack 40 ------- 0 3.0 0.0 1 8
- 1.062592 3 2 ack 40 ------- 0 3.0 0.0 1 8
r 1.063824 2 3 tcp 1540 ------- 0 1.0 3.1 1 6
+ 1.063824 3 2 ack 40 ------- 0 3.1 1.0 1 9
- 1.063824 3 2 ack 40 ------- 0 3.1 1.0 1 9
r 1.065056 2 3 tcp 1540 ------- 0 0.0 3.0 2 5
+ 1.065056 3 2 ack 40 ------- 0 3.0 0.0 2 10
- 1.065056 3 2 ack 40 ------- 0 3.0 0.0 2 10
r 1.066288 2 3 tcp 1540 ------- 0 1.0 3.1 2 7
+ 1.066288 3 2 ack 40 ------- 0 3.1 1.0 2 11
- 1.066288 3 2 ack 40 ------- 0 3.1 1.0 2 11
r 1.072624 3 2 ack 40 ------- 0 3.0 0.0 1 8
+ 1.072624 2 0 ack 40 ------- 0 3.0 0.0 1 8
- 1.072624 2 0 ack 40 ------- 0 3.0 0.0 1 8
r 1.073856 3 2 ack 40 ------- 0 3.1 1.0 1 9
+ 1.073856 2 1 ack 40 ------- 0 3.1 1.0 1 9
- 1.073856 2 1 ack 40 ------- 0 3.1 1.0 1 9
r 1.075088 3 2 ack 40 ------- 0 3.0 0.0 2 10
+ 1.075088 2 0 ack 40 ------- 0 3.0 0.0 2 10
- 1.075088 2 0 ack 40 ------- 0 3.0 0.0 2 10
r 1.07632 3 2 ack 40 ------- 0 3.1 1.0 2 11
+ 1.07632 2 1 ack 40 ------- 0 3.1 1.0 2 11
- 1.07632 2 1 ack 40 ------- 0 3.1 1.0 2 11
r 1.082656 2 0 ack 40 ------- 0 3.0 0.0 1 8
+ 1.082656 0 2 tcp 1540 ------- 0 0.0 3.0 3 12
- 1.082656 0 2 tcp 1540 ------- 0 0.0 3.0 3 12
+ 1.082656 0 2 tcp 1540 ------- 0 0.0 3.0 4 13
r 1.083888 2 1 ack 40 ------- 0 3.1 1.0 1 9
+ 1.083888 1 2 tcp 1540 ------- 0 1.0 3.1 3 14
- 1.083888 1 2 tcp 1540 ------- 0 1.0 3.1 3 14
+ 1.083888 1 2 tcp 1540 ------- 0 1.0 3.1 4 15
- 1.083888 0 2 tcp 1540 ------- 0 0.0 3.0 4 13
r 1.08512 2 0 ack 40 ------- 0 3.0 0.0 2 10
+ 1.08512 0 2 tcp 1540 ------- 0 0.0 3.0 5 16
+ 1.08512 0 2 tcp 1540 ------- 0 0.0 3.0 6 17
- 1.08512 1 2 tcp 1540 ------- 0 1.0 3.1 4 15
- 1.08512 0 2 tcp 1540 ------- 0 0.0 3.0 5 16
r 1.086352 2 1 ack 40 ------- 0 3.1 1.0 2 11
+ 1.086352 1 2 tcp 1540 ------- 0 1.0 3.1 5 18
+ 1.086352 1 2 tcp 1540 ------- 0 1.0 3.1 6 19
- 1.086352 1 2 tcp 1540 ------- 0 1.0 3.1 5 18
- 1.086352 0 2 tcp 1540 ------- 0 0.0 3.0 6 17
- 1.087584 1 2 tcp 1540 ------- 0 1.0 3.1 6 19
r 1.093888 0 2 tcp 1540 ------- 0 0.0 3.0 3 12
+ 1.093888 2 3 tcp 1540 ------- 0 0.0 3.0 3 12
- 1.093888 2 3 tcp 1540 ------- 0 0.0 3.0 3 12
r 1.09512 1 2 tcp 1540 ------- 0 1.0 3.1 3 14
+ 1.09512 2 3 tcp 1540 ------- 0 1.0 3.1 3 14
r 1.09512 0 2 tcp 1540 ------- 0 0.0 3.0 4 13
+ 1.09512 2 3 tcp 1540 ------- 0 0.0 3.0 4 13
- 1.09512 2 3 tcp 1540 ------- 0 1.0 3.1 3 14
r 1.096352 1 2 tcp 1540 ------- 0 1.0 3.1 4 15
+ 1.096352 2 3 tcp 1540 ------- 0 1.0 3.1 4 15
r 1.096352 0 2 tcp 1540 ------- 0 0.0 3.0 5 16
+ 1.096352 2 3 tcp 1540 ------- 0 0.0 3.0 5 16
- 1.096352 2 3 tcp 1540 ------- 0 0.0 3.0 4 13
r 1.097584 1 2 tcp 1540 ------- 0 1.0 3.1 5 18
+ 1.097584 2 3 tcp 1540 ------- 0 1.0 3.1 5 18
r 1.097584 0 2 tcp 1540 ------- 0 0.0 3.0 6 17
+ 1.097584 2 3 tcp 1540 ------- 0 0.0 3.0 6 17
- 1.097584 2 3 tcp 1540 ------- 0 1.0 3.1 4 15
r 1.098816 1 2 tcp 1540 ------- 0 1.0 3.1 6 19
+ 1.098816 2 3 tcp 1540 ------- 0 1.0 3.1 6 19
- 1.098816 2 3 tcp 1540 ------- 0 0.0 3.0 5 16
- 1.100048 2 3 tcp 1540 ------- 0 1.0 3.1 5 18
- 1.10128 2 3 tcp 1540 ------- 0 0.0 3.0 6 17
- 1.102512 2 3 tcp 1540 ------- 0 1.0 3.1 6 19
r 1.10512 2 3 tcp 1540 ------- 0 0.0 3.0 3 12
+ 1.10512 3 2 ack 40 ------- 0 3.0 0.0 3 20
- 1.10512 3 2 ack 40 ------- 0 3.0 0.0 3 20
r 1.106352 2 3 tcp 1540 ------- 0 1.0 3.1 3 14
+ 1.106352 3 2 ack 40 ------- 0 3.1 1.0 3 21
- 1.106352 3 2 ack 40 ------- 0 3.1 1.0 3 21
r 1.107584 2 3 tcp 1540 ------- 0 0.0 3.0 4 13
+ 1.107584 3 2 ack 40 ------- 0 3.0 0.0 4 22
- 1.107584 3 2 ack 40 ------- 0 3.0 0.0 4 22
r 1.108816 2 3 tcp 1540 ------- 0 1.0 3.1 4 15
+ 1.108816 3 2 ack 40 ------- 0 3.1 1.0 4 23
- 1.108816 3 2 ack 40 ------- 0 3.1 1.0 4 23
r 1.110048 2 3 tcp 1540 ------- 0 0.0 3.0 5 16
+ 1.110048 3 2 ack 40 ------- 0 3.0 0.0 5 24
- 1.110048 3 2 ack 40 ------- 0 3.0 0.0 5 24
r 1.11128 2 3 tcp 1540 ------- 0 1.0 3.1 5 18
+ 1.11128 3 2 ack 40 ------- 0 3.1 1.0 5 25
- 1.11128 3 2 ack 40 ------- 0 3.1 1.0 5 25
r 1.112512 2 3 tcp 1540 ------- 0 0.0 3.0 6 17
+ 1.112512 3 2 ack 40 ------- 0 3.0 0.0 6 26
- 1.112512 3 2 ack 40 ------- 0 3.0 0.0 6 26
r 1.113744 2 3 tcp 1540 ------- 0 1.0 3.1 6 19
+ 1.113744 3 2 ack 40 ------- 0 3.1 1.0 6 27
- 1.113744 3 2 ack 40 ------- 0 3.1 1.0 6 27
r 1.115152 3 2 ack 40 ------- 0 3.0 0.0 3 20
+ 1.115152 2 0 ack 40 ------- 0 3.0 0.0 3 20
- 1.115152 2 0 ack 40 ------- 0 3.0 0.0 3 20
r 1.116384 3 2 ack 40 ------- 0 3.1 1.0 3 21
+ 1.116384 2 1 ack 40 ------- 0 3.1 1.0 3 21
- 1.116384 2 1 ack 40 ------- 0 3.1 1.0 3 21
r 1.117616 3 2 ack 40 ------- 0 3.0 0.0 4 22
+ 1.117616 2 0 ack 40 ------- 0 3.0 0.0 4 22
- 1.117616 2 0 ack 40 ------- 0 3.0 0.0 4 22
r 1.118848 3 2 ack 40 ------- 0 3.1 1.0 4 23
+ 1.118848 2 1 ack 40 ------- 0 3.1 1.0 4 23
- 1.118848 2 1 ack 40 ------- 0 3.1 1.0 4 23
r 1.12008 3 2 ack 40 ------- 0 3.0 0.0 5 24
+ 1.12008 2 0 ack 40 ------- 0 3.0 0.0 5 24
- 1.12008 2 0 ack 40 ------- 0 3.0 0.0 5 24
r 1.121312 3 2 ack 40 ------- 0 3.1 1.0 5 25
+ 1.121312 2 1 ack 40 ------- 0 3.1 1.0 5 25
- 1.121312 2 1 ack 40 ------- 0 3.1 1.0 5 25
r 1.122544 3 2 ack 40 ------- 0 3.0 0.0 6 26
+ 1.122544 2 0 ack 40 ------- 0 3.0 0.0 6 26
- 1.122544 2 0 ack 40 ------- 0 3.0 0.0 6 26
r 1.123776 3 2 ack 40 ------- 0 3.1 1.0 6 27
+ 1.123776 2 1 ack 40 ------- 0 3.1 1.0 6 27
- 1.123776 2 1 ack 40 ------- 0 3.1 1.0 6 27
r 1.125184 2 0 ack 40 ------- 0 3.0 0.0 3 20
+ 1.125184 0 2 tcp 1540 ------- 0 0.0 3.0 7 28
- 1.125184 0 2 tcp 1540 ------- 0 0.0 3.0 7 28
+ 1.125184 0 2 tcp 1540 ------- 0 0.0 3.0 8 29
r 1.126416 2 1 ack 40 ------- 0 3.1 1.0 3 21
+ 1.126416 1 2 tcp 1540 ------- 0 1.0 3.1 7 30
- 1.126416 1 2 tcp 1540 ------- 0 1.0 3.1 7 30
+ 1.126416 1 2 tcp 1540 ------- 0 1.0 3.1 8 31
- 1.126416 0 2 tcp 1540 ------- 0 0.0 3.0 8 29
r 1.127648 2 0 ack 40 ------- 0 3.0 0.0 4 22
+ 1.127648 0 2 tcp 1540 ------- 0 0.0 3.0 9 32
+ 1.127648 0 2 tcp 1540 ------- 0 0.0 3.0 10 33
- 1.127648 1 2 tcp 1540 ------- 0 1.0 3.1 8 31
- 1.127648 0 2 tcp 1540 ------- 0 0.0 3.0 9 32
r 1.12888 2 1 ack 40 ------- 0 3.1 1.0 4 23
+ 1.12888 1 2 tcp 1540 ------- 0 1.0 3.1 9 34
+ 1.12888 1 2 tcp 1540 ------- 0 1.0 3.1 10 35
- 1.12888 1 2 tcp 1540 ------- 0 1.0 3.1 9 34
- 1.12888 0 2 tcp 1540 ------- 0 0.0 3.0 10 33
r 1.130112 2 0 ack 40 ------- 0 3.0 0.0 5 24
+ 1.130112 0 2 tcp 1540 ------- 0 0.0 3.0 11 36
+ 1.130112 0 2 tcp 1540 ------- 0 0.0 3.0 12 37
- 1.130112 1 2 tcp 1540 ------- 0 1.0 3.1 10 35
- 1.130112 0 2 tcp 1540 ------- 0 0.0 3.0 11 36
r 1.131344 2 1 ack 40 ------- 0 3.1 1.0 5 25
+ 1.131344 1 2 tcp 1540 ------- 0 1.0 3.1 11 38
+ 1.131344 1 2 tcp 1540 ------- 0 1.0 3.1 12 39
- 1.131344 1 2 tcp 1540 ------- 0 1.0 3.1 11 38
- 1.131344 0 2 tcp 1540 ------- 0 0.0 3.0 12 37
r 1.132576 2 0 ack 40 ------- 0 3.0 0.0 6 26
+ 1.132576 0 2 tcp 1540 ------- 0 0.0 3.0 13 40
+ 1.132576 0 2 tcp 1540 ------- 0 0.0 3.0 14 41
- 1.132576 1 2 tcp 1540 ------- 0 1.0 3.1 12 39
- 1.132576 0 2 tcp 1540 ------- 0 0.0 3.0 13 40
r 1.133808 2 1 ack 40 ------- 0 3.1 1.0 6 27
+ 1.133808 1 2 tcp 1540 ------- 0 1.0 3.1 13 42
+ 1.133808 1 2 tcp 1540 ------- 0 1.0 3.1 14 43
- 1.133808 1 2 tcp 1540 ------- 0 1.0 3.1 13 42
- 1.133808 0 2 tcp 1540 ------- 0 0.0 3.0 14 41
- 1.13504 1 2 tcp 1540 ------- 0 1.0 3.1 14 43
r 1.136416 0 2 tcp 1540 ------- 0 0.0 3.0 7 28
+ 1.136416 2 3 tcp 1540 ------- 0 0.0 3.0 7 28
- 1.136416 2 3 tcp 1540 ------- 0 0.0 3.0 7 28
r 1.137648 1 2 tcp 1540 ------- 0 1.0 3.1 7 30
+ 1.137648 2 3 tcp 1540 ------- 0 1.0 3.1 7 30
r 1.137648 0 2 tcp 1540 ------- 0 0.0 3.0 8 29
+ 1.137648 2 3 tcp 1540 ------- 0 0.0 3.0 8 29
- 1.137648 2 3 tcp 1540 ------- 0 1.0 3.1 7 30
r 1.13888 1 2 tcp 1540 ------- 0 1.0 3.1 8 31
+ 1.13888 2 3 tcp 1540 ------- 0 1.0 3.1 8 31
r 1.13888 0 2 tcp 1540 ------- 0 0.0 3.0 9 32
+ 1.13888 2 3 tcp 1540 ------- 0 0.0 3.0 9 32
- 1.13888 2 3 tcp 1540 ------- 0 0.0 3.0 8 29
r 1.140112 1 2 tcp 1540 ------- 0 1.0 3.1 9 34
+ 1.140112 2 3 tcp 1540 ------- 0 1.0 3.1 9 34
r 1.140112 0 2 tcp 1540 ------- 0 0.0 3.0 10 33
+ 1.140112 2 3 tcp 1540 ------- 0 0.0 3.0 10 33
- 1.140112 2 3 tcp 1540 ------- 0 1.0 3.1 8 31
r 1.141344 1 2 tcp 1540 ------- 0 1.0 3.1 10 35
+ 1.141344 2 3 tcp 1540 ------- 0 1.0 3.1 10 35
r 1.141344 0 2 tcp 1540 ------- 0 0.0 3.0 11 36
+ 1.141344 2 3 tcp 1540 ------- 0 0.0 3.0 11 36
- 1.141344 2 3 tcp 1540 ------- 0 0.0 3.0 9 32
r 1.142576 1 2 tcp 1540 ------- 0 1.0 3.1 11 38
+ 1.142576 2 3 tcp 1540 ------- 0 1.0 3.1 11 38
r 1.142576 0 2 tcp 1540 ------- 0 0.0 3.0 12 37
+ 1.142576 2 3 tcp 1540 ------- 0 0.0 3.0 12 37
- 1.142576 2 3 tcp 1540 ------- 0 1.0 3.1 9 34
r 1.143808 1 2 tcp 1540 ------- 0 1.0 3.1 12 39
+ 1.143808 2 3 tcp 1540 ------- 0 1.0 3.1 12 39
r 1.143808 0 2 tcp 1540 ------- 0 0.0 3.0 13 40
+ 1.143808 2 3 tcp 1540 ------- 0 0.0 3.0 13 40
- 1.143808 2 3 tcp 1540 ------- 0 0.0 3.0 10 33
r 1.14504 1 2 tcp 1540 ------- 0 1.0 3.1 13 42
+ 1.14504 2 3 tcp 1540 ------- 0 1.0 3.1 13 42
r 1.14504 0 2 tcp 1540 ------- 0 0.0 3.0 14 41
+ 1.14504 2 3 tcp 1540 ------- 0 0.0 3.0 14 41
- 1.14504 2 3 tcp 1540 ------- 0 1.0 3.1 10 35
r 1.146272 1 2 tcp 1540 ------- 0 1.0 3.1 14 43
+ 1.146272 2 3 tcp 1540 ------- 0 1.0 3.1 14 43
- 1.146272 2 3 tcp 1540 ------- 0 0.0 3.0 11 36
- 1.147504 2 3 tcp 1540 ------- 0 1.0 3.1 11 38
r 1.147648 2 3 tcp 1540 ------- 0 0.0 3.0 7 28
+ 1.147648 3 2 ack 40 ------- 0 3.0 0.0 7 44
- 1.147648 3 2 ack 40 ------- 0 3.0 0.0 7 44
- 1.148736 2 3 tcp 1540 ------- 0 0.0 3.0 12 37
r 1.14888 2 3 tcp 1540 ------- 0 1.0 3.1 7 30
+ 1.14888 3 2 ack 40 ------- 0 3.1 1.0 7 45
- 1.14888 3 2 ack 40 ------- 0 3.1 1.0 7 45
- 1.149968 2 3 tcp 1540 ------- 0 1.0 3.1 12 39
r 1.150112 2 3 tcp 1540 ------- 0 0.0 3.0 8 29
+ 1.150112 3 2 ack 40 ------- 0 3.0 0.0 8 46
- 1.150112 3 2 ack 40 ------- 0 3.0 0.0 8 46
- 1.1512 2 3 tcp 1540 ------- 0 0.0 3.0 13 40
r 1.151344 2 3 tcp 1540 ------- 0 1.0 3.1 8 31
+ 1.151344 3 2 ack 40 ------- 0 3.1 1.0 8 47
- 1.151344 3 2 ack 40 ------- 0 3.1 1.0 8 47
- 1.152432 2 3 tcp 1540 ------- 0 1.0 3.1 13 42
r 1.152576 2 3 tcp 1540 ------- 0 0.0 3.0 9 32
+ 1.152576 3 2 ack 40 ------- 0 3.0 0.0 9 48
- 1.152576 3 2 ack 40 ------- 0 3.0 0.0 9 48
- 1.153664 2 3 tcp 1540 ------- 0 0.0 3.0 14 41
r 1.153808 2 3 tcp 1540 ------- 0 1.0 3.1 9 34
+ 1.153808 3 2 ack 40 ------- 0 3.1 1.0 9 49
- 1.153808 3 2 ack 40 ------- 0 3.1 1.0 9 49
- 1.154896 2 3 tcp 1540 ------- 0 1.0 3.1 14 43
r 1.15504 2 3 tcp 1540 ------- 0 0.0 3.0 10 33
+ 1.15504 3 2 ack 40 ------- 0 3.0 0.0 10 50
- 1.15504 3 2 ack 40 ------- 0 3.0 0.0 10 50
r 1.156272 2 3 tcp 1540 ------- 0 1.0 3.1 10 35
+ 1.156272 3 2 ack 40 ------- 0 3.1 1.0 10 51
- 1.156272 3 2 ack 40 ------- 0 3.1 1.0 10 51
r 1.157504 2 3 tcp 1540 ------- 0 0.0 3.0 11 36
+ 1.157504 3 2 ack 40 ------- 0 3.0 0.0 11 52
- 1.157504 3 2 ack 40 ------- 0 3.0 0.0 11 52
r 1.15768 3 2 ack 40 ------- 0 3.0 0.0 7 44
+ 1.15768 2 0 ack 40 ------- 0 3.0 0.0 7 44
- 1.15768 2 0 ack 40 ------- 0 3.0 0.0 7 44
r 1.158736 2 3 tcp 1540 ------- 0 1.0 3.1 11 38
+ 1.158736 3 2 ack 40 ------- 0 3.1 1.0 11 53
- 1.158736 3 2 ack 40 ------- 0 3.1 1.0 11 53
r 1.158912 3 2 ack 40 ------- 0 3.1 1.0 7 45
+ 1.158912 2 1 ack 40 ------- 0 3.1 1.0 7 45
- 1.158912 2 1 ack 40 ------- 0 3.1 1.0 7 45
r 1.159968 2 3 tcp 1540 ------- 0 0.0 3.0 12 37
+ 1.159968 3 2 ack 40 ------- 0 3.0 0.0 12 54
- 1.159968 3 2 ack 40 ------- 0 3.0 0.0 12 54
r 1.160144 3 2 ack 40 ------- 0 3.0 0.0 8 46
+ 1.160144 2 0 ack 40 ------- 0 3.0 0.0 8 46
- 1.160144 2 0 ack 40 ------- 0 3.0 0.0 8 46
r 1.1612 2 3 tcp 1540 ------- 0 1.0 3.1 12 39
+ 1.1612 3 2 ack 40 ------- 0 3.1 1.0 12 55
- 1.1612 3 2 ack 40 ------- 0 3.1 1.0 12 55
r 1.161376 3 2 ack 40 ------- 0 3.1 1.0 8 47
+ 1.161376 2 1 ack 40 ------- 0 3.1 1.0 8 47
- 1.161376 2 1 ack 40 ------- 0 3.1 1.0 8 47
r 1.162432 2 3 tcp 1540 ------- 0 0.0 3.0 13 40
+ 1.162432 3 2 ack 40 ------- 0 3.0 0.0 13 56
- 1.162432 3 2 ack 40 ------- 0 3.0 0.0 13 56
r 1.162608 3 2 ack 40 ------- 0 3.0 0.0 9 48
+ 1.162608 2 0 ack 40 ------- 0 3.0 0.0 9 48
- 1.162608 2 0 ack 40 ------- 0 3.0 0.0 9 48
r 1.163664 2 3 tcp 1540 ------- 0 1.0 3.1 13 42
+ 1.163664 3 2 ack 40 ------- 0 3.1 1.0 13 57
- 1.163664 3 2 ack 40 ------- 0 3.1 1.0 13 57
r 1.16384 3 2 ack 40 ------- 0 3.1 1.0 9 49
+ 1.16384 2 1 ack 40 ------- 0 3.1 1.0 9 49
- 1.16384 2 1 ack 40 ------- 0 3.1 1.0 9 49
r 1.164896 2 3 tcp 1540 ------- 0 0.0 3.0 14 41
+ 1.164896 3 2 ack 40 ------- 0 3.0 0.0 14 58
- 1.164896 3 2 ack 40 ------- 0 3.0 0.0 14 58
r 1.165072 3 2 ack 40 ------- 0 3.0 0.0 10 50
+ 1.165072 2 0 ack 40 ------- 0 3.0 0.0 10 50
- 1.165072 2 0 ack 40 ------- 0 3.0 0.0 10 50
r 1.166128 2 3 tcp 1540 ------- 0 1.0 3.1 14 43
+ 1.166128 3 2 ack 40 ------- 0 3.1 1.0 14 59
- 1.166128 3 2 ack 40 ------- 0 3.1 1.0 14 59
r 1.166304 3 2 ack 40 ------- 0 3.1 1.0 10 51
+ 1.166304 2 1 ack 40 ------- 0 3.1 1.0 10 51
- 1.166304 2 1 ack 40 ------- 0 3.1 1.0 10 51
r 1.167536 3 2 ack 40 ------- 0 3.0 0.0 11 52
+ 1.167536 2 0 ack 40 ------- 0 3.0 0.0 11 52
- 1.167536 2 0 ack 40 ------- 0 3.0 0.0 11 52
r 1.167712 2 0 ack 40 ------- 0 3.0 0.0 7 44
+ 1.167712 0 2 tcp 1540 ------- 0 0.0 3.0 15 60
- 1.167712 0 2 tcp 1540 ------- 0 0.0 3.0 15 60
+ 1.167712 0 2 tcp 1540 ------- 0 0.0 3.0 16 61
r 1.168768 3 2 ack 40 ------- 0 3.1 1.0 11 53
+ 1.168768 2 1 ack 40 ------- 0 3.1 1.0 11 53
- 1.168768 2 1 ack 40 ------- 0 3.1 1.0 11 53
r 1.168944 2 1 ack 40 ------- 0 3.1 1.0 7 45
+ 1.168944 1 2 tcp 1540 ------- 0 1.0 3.1 15 62
- 1.168944 1 2 tcp 1540 ------- 0 1.0 3.1 15 62
+ 1.168944 1 2 tcp 1540 ------- 0 1.0 3.1 16 63
- 1.168944 0 2 tcp 1540 ------- 0 0.0 3.0 16 61
r 1.17 3 2 ack 40 ------- 0 3.0 0.0 12 54
+ 1.17 2 0 ack 40 ------- 0 3.0 0.0 12 54
- 1.17 2 0 ack 40 ------- 0 3.0 0.0 12 54
r 1.170176 2 0 ack 40 ------- 0 3.0 0.0 8 46
+ 1.170176 0 2 tcp 1540 ------- 0 0.0 3.0 17 64
+ 1.170176 0 2 tcp 1540 ------- 0 0.0 3.0 18 65
- 1.170176 1 2 tcp 1540 ------- 0 1.0 3.1 16 63
- 1.170176 0 2 tcp 1540 ------- 0 0.0 3.0 17 64
r 1.171232 3 2 ack 40 ------- 0 3.1 1.0 12 55
+ 1.171232 2 1 ack 40 ------- 0 3.1 1.0 12 55
- 1.171232 2 1 ack 40 ------- 0 3.1 1.0 12 55
r 1.171408 2 1 ack 40 ------- 0 3.1 1.0 8 47
+ 1.171408 1 2 tcp 1540 ------- 0 1.0 3.1 17 66
+ 1.171408 1 2 tcp 1540 ------- 0 1.0 3.1 18 67
- 1.171408 1 2 tcp 1540 ------- 0 1.0 3.1 17 66
- 1.171408 0 2 tcp 1540 ------- 0 0.0 3.0 18 65
r 1.172464 3 2 ack 40 ------- 0 3.0 0.0 13 56
+ 1.172464 2 0 ack 40 ------- 0 3.0 0.0 13 56
- 1.172464 2 0 ack 40 ------- 0 3.0 0.0 13 56
r 1.17264 2 0 ack 40 ------- 0 3.0 0.0 9 48
+ 1.17264 0 2 tcp 1540 ------- 0 0.0 3.0 19 68
+ 1.17264 0 2 tcp 1540 ------- 0 0.0 3.0 20 69
- 1.17264 1 2 tcp 1540 ------- 0 1.0 3.1 18 67
- 1.17264 0 2 tcp 1540 ------- 0 0.0 3.0 19 68
r 1.173696 3 2 ack 40 ------- 0 3.1 1.0 13 57
+ 1.173696 2 1 ack 40 ------- 0 3.1 1.0 13 57
- 1.173696 2 1 ack 40 ------- 0 3.1 1.0 13 57
r 1.173872 2 1 ack 40 ------- 0 3.1 1.0 9 49
+ 1.173872 1 2 tcp 1540 ------- 0 1.0 3.1 19 70
+ 1.173872 1 2 tcp 1540 ------- 0 1.0 3.1 20 71
- 1.173872 1 2 tcp 1540 ------- 0 1.0 3.1 19 70
- 1.173872 0 2 tcp 1540 ------- 0 0.0 3.0 20 69
r 1.174928 3 2 ack 40 ------- 0 3.0 0.0 14 58
+ 1.174928 2 0 ack 40 ------- 0 3.0 0.0 14 58
- 1.174928 2 0 ack 40 ------- 0 3.0 0.0 14 58
r 1.175104 2 0 ack 40 ------- 0 3.0 0.0 10 50
+ 1.175104 0 2 tcp 1540 ------- 0 0.0 3.0 21 72
+ 1.175104 0 2 tcp 1540 ------- 0 0.0 3.0 22 73
- 1.175104 1 2 tcp 1540 ------- 0 1.0 3.1 20 71
- 1.175104 0 2 tcp 1540 ------- 0 0.0 3.0 21 72
r 1.17616 3 2 ack 40 ------- 0 3.1 1.0 14 59
+ 1.17616 2 1 ack 40 ------- 0 3.1 1.0 14 59
- 1.17616 2 1 ack 40 ------- 0 3.1 1.0 14 59
r 1.176336 2 1 ack 40 ------- 0 3.1 1.0 10 51
+ 1.176336 1 2 tcp 1540 ------- 0 1.0 3.1 21 74
+ 1.176336 1 2 tcp 1540 ------- 0 1.0 3.1 22 75
- 1.176336 1 2 tcp 1540 ------- 0 1.0 3.1 21 74
- 1.176336 0 2 tcp 1540 ------- 0 0.0 3.0 22 73
r 1.177568 2 0 ack 40 ------- 0 3.0 0.0 11 52
+ 1.177568 0 2 tcp 1540 ------- 0 0.0 3.0 23 76
+ 1.177568 0 2 tcp 1540 ------- 0 0.0 3.0 24 77
- 1.177568 1 2 tcp 1540 ------- 0 1.0 3.1 22 75
- 1.177568 0 2 tcp 1540 ------- 0 0.0 3.0 23 76
r 1.1788 2 1 ack 40 ------- 0 3.1 1.0 11 53
+ 1.1788 1 2 tcp 1540 ------- 0 1.0 3.1 23 78
+ 1.1788 1 2 tcp 1540 ------- 0 1.0 3.1 24 79
- 1.1788 1 2 tcp 1540 ------- 0 1.0 3.1 23 78
- 1.1788 0 2 tcp 1540 ------- 0 0.0 3.0 24 77
r 1.178944 0 2 tcp 1540 ------- 0 0.0 3.0 15 60
+ 1.178944 2 3 tcp 1540 ------- 0 0.0 3.0 15 60
- 1.178944 2 3 tcp 1540 ------- 0 0.0 3.0 15 60
r 1.180032 2 0 ack 40 ------- 0 3.0 0.0 12 54
+ 1.180032 0 2 tcp 1540 ------- 0 0.0 3.0 25 80
+ 1.180032 0 2 tcp 1540 ------- 0 0.0 3.0 26 81
- 1.180032 1 2 tcp 1540 ------- 0 1.0 3.1 24 79
- 1.180032 0 2 tcp 1540 ------- 0 0.0 3.0 25 80
r 1.180176 1 2 tcp 1540 ------- 0 1.0 3.1 15 62
+ 1.180176 2 3 tcp 1540 ------- 0 1.0 3.1 15 62
r 1.180176 0 2 tcp 1540 ------- 0 0.0 3.0 16 61
+ 1.180176 2 3 tcp 1540 ------- 0 0.0 3.0 16 61
- 1.180176 2 3 tcp 1540 ------- 0 1.0 3.1 15 62
r 1.181264 2 1 ack 40 ------- 0 3.1 1.0 12 55
+ 1.181264 1 2 tcp 1540 ------- 0 1.0 3.1 25 82
+ 1.181264 1 2 tcp 1540 ------- 0 1.0 3.1 26 83
- 1.181264 1 2 tcp 1540 ------- 0 1.0 3.1 25 82
- 1.181264 0 2 tcp 1540 ------- 0 0.0 3.0 26 81
r 1.181408 1 2 tcp 1540 ------- 0 1.0 3.1 16 63
+ 1.181408 2 3 tcp 1540 ------- 0 1.0 3.1 16 63
r 1.181408 0 2 tcp 1540 ------- 0 0.0 3.0 17 64
+ 1.181408 2 3 tcp 1540 ------- 0 0.0 3.0 17 64
- 1.181408 2 3 tcp 1540 ------- 0 0.0 3.0 16 61
r 1.182496 2 0 ack 40 ------- 0 3.0 0.0 13 56
+ 1.182496 0 2 tcp 1540 ------- 0 0.0 3.0 27 84
+ 1.182496 0 2 tcp 1540 ------- 0 0.0 3.0 28 85
- 1.182496 1 2 tcp 1540 ------- 0 1.0 3.1 26 83
- 1.182496 0 2 tcp 1540 ------- 0 0.0 3.0 27 84
r 1.18264 1 2 tcp 1540 ------- 0 1.0 3.1 17 66
+ 1.18264 2 3 tcp 1540 ------- 0 1.0 3.1 17 66
r 1.18264 0 2 tcp 1540 ------- 0 0.0 3.0 18 65
+ 1.18264 2 3 tcp 1540 ------- 0 0.0 3.0 18 65
- 1.18264 2 3 tcp 1540 ------- 0 1.0 3.1 16 63
r 1.183728 2 1 ack 40 ------- 0 3.1 1.0 13 57
+ 1.183728 1 2 tcp 1540 ------- 0 1.0 3.1 27 86
+ 1.183728 1 2 tcp 1540 ------- 0 1.0 3.1 28 87
- 1.183728 1 2 tcp 1540 ------- 0 1.0 3.1 27 86
- 1.183728 0 2 tcp 1540 ------- 0 0.0 3.0 28 85
r 1.183872 1 2 tcp 1540 ------- 0 1.0 3.1 18 67
+ 1.183872 2 3 tcp 1540 ------- 0 1.0 3.1 18 67
r 1.183872 0 2 tcp 1540 ------- 0 0.0 3.0 19 68
+ 1.183872 2 3 tcp 1540 ------- 0 0.0 3.0 19 68
- 1.183872 2 3 tcp 1540 ------- 0 0.0 3.0 17 64
r 1.18496 2 0 ack 40 ------- 0 3.0 0.0 14 58
+ 1.18496 0 2 tcp 1540 ------- 0 0.0 3.0 29 88
+ 1.18496 0 2 tcp 1540 ------- 0 0.0 3.0 30 89
- 1.18496 1 2 tcp 1540 ------- 0 1.0 3.1 28 87
- 1.18496 0 2 tcp 1540 ------- 0 0.0 3.0 29 88
r 1.185104 1 2 tcp 1540 ------- 0 1.0 3.1 19 70
+ 1.185104 2 3 tcp 1540 ------- 0 1.0 3.1 19 70
r 1.185104 0 2 tcp 1540 ------- 0 0.0 3.0 20 69
+ 1.185104 2 3 tcp 1540 ------- 0 0.0 3.0 20 69
- 1.185104 2 3 tcp 1540 ------- 0 1.0 3.1 17 66
r 1.186192 2 1 ack 40 ------- 0 3.1 1.0 14 59
+ 1.186192 1 2 tcp 1540 ------- 0 1.0 3.1 29 90
+ 1.186192 1 2 tcp 1540 ------- 0 1.0 3.1 30 91
- 1.186192 1 2 tcp 1540 ------- 0 1.0 3.1 29 90
- 1.186192 0 2 tcp 1540 ------- 0 0.0 3.0 30 89
r 1.186336 1 2 tcp 1540 ------- 0 1.0 3.1 20 71
+ 1.186336 2 3 tcp 1540 ------- 0 1.0 3.1 20 71
r 1.186336 0 2 tcp 1540 ------- 0 0.0 3.0 21 72
+ 1.186336 2 3 tcp 1540 ------- 0 0.0 3.0 21 72
- 1.186336 2 3 tcp 1540 ------- 0 0.0 3.0 18 65
- 1.187424 1 2 tcp 1540 ------- 0 1.0 3.1 30 91
r 1.187568 1 2 tcp 1540 ------- 0 1.0 3.1 21 74
+ 1.187568 2 3 tcp 1540 ------- 0 1.0 3.1 21 74
r 1.187568 0 2 tcp 1540 ------- 0 0.0 3.0 22 73
+ 1.187568 2 3 tcp 1540 ------- 0 0.0 3.0 22 73
- 1.187568 2 3 tcp 1540 ------- 0 1.0 3.1 18 67
r 1.1888 1 2 tcp 1540 ------- 0 1.0 3.1 22 75
+ 1.1888 2 3 tcp 1540 ------- 0 1.0 3.1 22 75
r 1.1888 0 2 tcp 1540 ------- 0 0.0 3.0 23 76
+ 1.1888 2 3 tcp 1540 ------- 0 0.0 3.0 23 76
- 1.1888 2 3 tcp 1540 ------- 0 0.0 3.0 19 68
r 1.190032 1 2 tcp 1540 ------- 0 1.0 3.1 23 78
+ 1.190032 2 3 tcp 1540 ------- 0 1.0 3.1 23 78
r 1.190032 0 2 tcp 1540 ------- 0 0.0 3.0 24 77
+ 1.190032 2 3 tcp 1540 ------- 0 0.0 3.0 24 77
d 1.190032 2 3 tcp 1540 ------- 0 0.0 3.0 24 77
- 1.190032 2 3 tcp 1540 ------- 0 1.0 3.1 19 70
r 1.190176 2 3 tcp 1540 ------- 0 0.0 3.0 15 60
+ 1.190176 3 2 ack 40 ------- 0 3.0 0.0 15 92
- 1.190176 3 2 ack 40 ------- 0 3.0 0.0 15 92
r 1.191264 1 2 tcp 1540 ------- 0 1.0 3.1 24 79
+ 1.191264 2 3 tcp 1540 ------- 0 1.0 3.1 24 79
r 1.191264 0 2 tcp 1540 ------- 0 0.0 3.0 25 80
+ 1.191264 2 3 tcp 1540 ------- 0 0.0 3.0 25 80
d 1.191264 2 3 tcp 1540 ------- 0 0.0 3.0 25 80
- 1.191264 2 3 tcp 1540 ------- 0 0.0 3.0 20 69
r 1.191408 2 3 tcp 1540 ------- 0 1.0 3.1 15 62
+ 1.191408 3 2 ack 40 ------- 0 3.1 1.0 15 93
- 1.191408 3 2 ack 40 ------- 0 3.1 1.0 15 93
r 1.192496 1 2 tcp 1540 ------- 0 1.0 3.1 25 82
+ 1.192496 2 3 tcp 1540 ------- 0 1.0 3.1 25 82
r 1.192496 0 2 tcp 1540 ------- 0 0.0 3.0 26 81
+ 1.192496 2 3 tcp 1540 ------- 0 0.0 3.0 26 81
d 1.192496 2 3 tcp 1540 ------- 0 0.0 3.0 26 81
- 1.192496 2 3 tcp 1540 ------- 0 1.0 3.1 20 71
r 1.19264 2 3 tcp 1540 ------- 0 0.0 3.0 16 61
+ 1.19264 3 2 ack 40 ------- 0 3.0 0.0 16 94
- 1.19264 3 2 ack 40 ------- 0 3.0 0.0 16 94
r 1.193728 1 2 tcp 1540 ------- 0 1.0 3.1 26 83
+ 1.193728 2 3 tcp 1540 ------- 0 1.0 3.1 26 83
r 1.193728 0 2 tcp 1540 ------- 0 0.0 3.0 27 84
+ 1.193728 2 3 tcp 1540 ------- 0 0.0 3.0 27 84
d 1.193728 2 3 tcp 1540 ------- 0 0.0 3.0 27 84
- 1.193728 2 3 tcp 1540 ------- 0 0.0 3.0 21 72
r 1.193872 2 3 tcp 1540 ------- 0 1.0 3.1 16 63
+ 1.193872 3 2 ack 40 ------- 0 3.1 1.0 16 95
- 1.193872 3 2 ack 40 ------- 0 3.1 1.0 16 95
r 1.19496 1 2 tcp 1540 ------- 0 1.0 3.1 27 86
+ 1.19496 2 3 tcp 1540 ------- 0 1.0 3.1 27 86
r 1.19496 0 2 tcp 1540 ------- 0 0.0 3.0 28 85
+ 1.19496 2 3 tcp 1540 ------- 0 0.0 3.0 28 85
d 1.19496 2 3 tcp 1540 ------- 0 0.0 3.0 28 85
- 1.19496 2 3 tcp 1540 ------- 0 1.0 3.1 21 74
r 1.195104 2 3 tcp 1540 ------- 0 0.0 3.0 17 64
+ 1.195104 3 2 ack 40 ------- 0 3.0 0.0 17 96
- 1.195104 3 2 ack 40 ------- 0 3.0 0.0 17 96
r 1.196192 1 2 tcp 1540 ------- 0 1.0 3.1 28 87
+ 1.196192 2 3 tcp 1540 ------- 0 1.0 3.1 28 87
r 1.196192 0 2 tcp 1540 ------- 0 0.0 3.0 29 88
+ 1.196192 2 3 tcp 1540 ------- 0 0.0 3.0 29 88
d 1.196192 2 3 tcp 1540 ------- 0 0.0 3.0 29 88
- 1.196192 2 3 tcp 1540 ------- 0 0.0 3.0 22 73
r 1.196336 2 3 tcp 1540 ------- 0 1.0 3.1 17 66
+ 1.196336 3 2 ack 40 ------- 0 3.1 1.0 17 97
- 1.196336 3 2 ack 40 ------- 0 3.1 1.0 17 97
r 1.197424 1 2 tcp 1540 ------- 0 1.0 3.1 29 90
+ 1.197424 2 3 tcp 1540 ------- 0 1.0 3.1 29 90
r 1.197424 0 2 tcp 1540 ------- 0 0.0 3.0 30 89
+ 1.197424 2 3 tcp 1540 ------- 0 0.0 3.0 30 89
d 1.197424 2 3 tcp 1540 ------- 0 0.0 3.0 30 89
- 1.197424 2 3 tcp 1540 ------- 0 1.0 3.1 22 75
r 1.197568 2 3 tcp 1540 ------- 0 0.0 3.0 18 65
+ 1.197568 3 2 ack 40 ------- 0 3.0 0.0 18 98
- 1.197568 3 2 ack 40 ------- 0 3.0 0.0 18 98
r 1.198656 1 2 tcp 1540 ------- 0 1.0 3.1 30 91
+ 1.198656 2 3 tcp 1540 ------- 0 1.0 3.1 30 91
- 1.198656 2 3 tcp 1540 ------- 0 0.0 3.0 23 76
r 1.1988 2 3 tcp 1540 ------- 0 1.0 3.1 18 67
+ 1.1988 3 2 ack 40 ------- 0 3.1 1.0 18 99
- 1.1988 3 2 ack 40 ------- 0 3.1 1.0 18 99
- 1.199888 2 3 tcp 1540 ------- 0 1.0 3.1 23 78
r 1.200032 2 3 tcp 1540 ------- 0 0.0 3.0 19 68
+ 1.200032 3 2 ack 40 ------- 0 3.0 0.0 19 100
- 1.200032 3 2 ack 40 ------- 0 3.0 0.0 19 100
r 1.200208 3 2 ack 40 ------- 0 3.0 0.0 15 92
+ 1.200208 2 0 ack 40 ------- 0 3.0 0.0 15 92
- 1.200208 2 0 ack 40 ------- 0 3.0 0.0 15 92
- 1.20112 2 3 tcp 1540 ------- 0 1.0 3.1 24 79
r 1.201264 2 3 tcp 1540 ------- 0 1.0 3.1 19 70
+ 1.201264 3 2 ack 40 ------- 0 3.1 1.0 19 101
- 1.201264 3 2 ack 40 ------- 0 3.1 1.0 19 101
r 1.20144 3 2 ack 40 ------- 0 3.1 1.0 15 93
+ 1.20144 2 1 ack 40 ------- 0 3.1 1.0 15 93
- 1.20144 2 1 ack 40 ------- 0 3.1 1.0 15 93
- 1.202352 2 3 tcp 1540 ------- 0 1.0 3.1 25 82
r 1.202496 2 3 tcp 1540 ------- 0 0.0 3.0 20 69
+ 1.202496 3 2 ack 40 ------- 0 3.0 0.0 20 102
- 1.202496 3 2 ack 40 ------- 0 3.0 0.0 20 102
r 1.202672 3 2 ack 40 ------- 0 3.0 0.0 16 94
+ 1.202672 2 0 ack 40 ------- 0 3.0 0.0 16 94
- 1.202672 2 0 ack 40 ------- 0 3.0 0.0 16 94
- 1.203584 2 3 tcp 1540 ------- 0 1.0 3.1 26 83
r 1.203728 2 3 tcp 1540 ------- 0 1.0 3.1 20 71
+ 1.203728 3 2 ack 40 ------- 0 3.1 1.0 20 103
- 1.203728 3 2 ack 40 ------- 0 3.1 1.0 20 103
r 1.203904 3 2 ack 40 ------- 0 3.1 1.0 16 95
+ 1.203904 2 1 ack 40 ------- 0 3.1 1.0 16 95
- 1.203904 2 1 ack 40 ------- 0 3.1 1.0 16 95
- 1.204816 2 3 tcp 1540 ------- 0 1.0 3.1 27 86
r 1.20496 2 3 tcp 1540 ------- 0 0.0 3.0 21 72
+ 1.20496 3 2 ack 40 ------- 0 3.0 0.0 21 104
- 1.20496 3 2 ack 40 ------- 0 3.0 0.0 21 104
r 1.205136 3 2 ack 40 ------- 0 3.0 0.0 17 96
+ 1.205136 2 0 ack 40 ------- 0 3.0 0.0 17 96
- 1.205136 2 0 ack 40 ------- 0 3.0 0.0 17 96
- 1.206048 2 3 tcp 1540 ------- 0 1.0 3.1 28 87
r 1.206192 2 3 tcp 1540 ------- 0 1.0 3.1 21 74
+ 1.206192 3 2 ack 40 ------- 0 3.1 1.0 21 105
- 1.206192 3 2 ack 40 ------- 0 3.1 1.0 21 105
r 1.206368 3 2 ack 40 ------- 0 3.1 1.0 17 97
+ 1.206368 2 1 ack 40 ------- 0 3.1 1.0 17 97
- 1.206368 2 1 ack 40 ------- 0 3.1 1.0 17 97
- 1.20728 2 3 tcp 1540 ------- 0 1.0 3.1 29 90
r 1.207424 2 3 tcp 1540 ------- 0 0.0 3.0 22 73
+ 1.207424 3 2 ack 40 ------- 0 3.0 0.0 22 106
- 1.207424 3 2 ack 40 ------- 0 3.0 0.0 22 106
r 1.2076 3 2 ack 40 ------- 0 3.0 0.0 18 98
+ 1.2076 2 0 ack 40 ------- 0 3.0 0.0 18 98
- 1.2076 2 0 ack 40 ------- 0 3.0 0.0 18 98
- 1.208512 2 3 tcp 1540 ------- 0 1.0 3.1 30 91
r 1.208656 2 3 tcp 1540 ------- 0 1.0 3.1 22 75
+ 1.208656 3 2 ack 40 ------- 0 3.1 1.0 22 107
- 1.208656 3 2 ack 40 ------- 0 3.1 1.0 22 107
r 1.208832 3 2 ack 40 ------- 0 3.1 1.0 18 99
+ 1.208832 2 1 ack 40 ------- 0 3.1 1.0 18 99
- 1.208832 2 1 ack 40 ------- 0 3.1 1.0 18 99
r 1.209888 2 3 tcp 1540 ------- 0 0.0 3.0 23 76
+ 1.209888 3 2 ack 40 ------- 0 3.0 0.0 23 108
- 1.209888 3 2 ack 40 ------- 0 3.0 0.0 23 108
r 1.210064 3 2 ack 40 ------- 0 3.0 0.0 19 100
+ 1.210064 2 0 ack 40 ------- 0 3.0 0.0 19 100
- 1.210064 2 0 ack 40 ------- 0 3.0 0.0 19 100
r 1.21024 2 0 ack 40 ------- 0 3.0 0.0 15 92
+ 1.21024 0 2 tcp 1540 ------- 0 0.0 3.0 31 109
- 1.21024 0 2 tcp 1540 ------- 0 0.0 3.0 31 109
+ 1.21024 0 2 tcp 1540 ------- 0 0.0 3.0 32 110
r 1.21112 2 3 tcp 1540 ------- 0 1.0 3.1 23 78
+ 1.21112 3 2 ack 40 ------- 0 3.1 1.0 23 111
- 1.21112 3 2 ack 40 ------- 0 3.1 1.0 23 111
r 1.211296 3 2 ack 40 ------- 0 3.1 1.0 19 101
+ 1.211296 2 1 ack 40 ------- 0 3.1 1.0 19 101
- 1.211296 2 1 ack 40 ------- 0 3.1 1.0 19 101
r 1.211472 2 1 ack 40 ------- 0 3.1 1.0 15 93
+ 1.211472 1 2 tcp 1540 ------- 0 1.0 3.1 31 112
- 1.211472 1 2 tcp 1540 ------- 0 1.0 3.1 31 112
+ 1.211472 1 2 tcp 1540 ------- 0 1.0 3.1 32 113
- 1.211472 0 2 tcp 1540 ------- 0 0.0 3.0 32 110
r 1.212352 2 3 tcp 1540 ------- 0 1.0 3.1 24 79
+ 1.212352 3 2 ack 40 ------- 0 3.1 1.0 24 114
- 1.212352 3 2 ack 40 ------- 0 3.1 1.0 24 114
r 1.212528 3 2 ack 40 ------- 0 3.0 0.0 20 102
+ 1.212528 2 0 ack 40 ------- 0 3.0 0.0 20 102
- 1.212528 2 0 ack 40 ------- 0 3.0 0.0 20 102
r 1.212704 2 0 ack 40 ------- 0 3.0 0.0 16 94
+ 1.212704 0 2 tcp 1540 ------- 0 0.0 3.0 33 115
+ 1.212704 0 2 tcp 1540 ------- 0 0.0 3.0 34 116
- 1.212704 1 2 tcp 1540 ------- 0 1.0 3.1 32 113
- 1.212704 0 2 tcp 1540 ------- 0 0.0 3.0 33 115
r 1.213584 2 3 tcp 1540 ------- 0 1.0 3.1 25 82
+ 1.213584 3 2 ack 40 ------- 0 3.1 1.0 25 117
- 1.213584 3 2 ack 40 ------- 0 3.1 1.0 25 117
r 1.21376 3 2 ack 40 ------- 0 3.1 1.0 20 103
+ 1.21376 2 1 ack 40 ------- 0 3.1 1.0 20 103
- 1.21376 2 1 ack 40 ------- 0 3.1 1.0 20 103
r 1.213936 2 1 ack 40 ------- 0 3.1 1.0 16 95
+ 1.213936 1 2 tcp 1540 ------- 0 1.0 3.1 33 118
+ 1.213936 1 2 tcp 1540 ------- 0 1.0 3.1 34 119
- 1.213936 1 2 tcp 1540 ------- 0 1.0 3.1 33 118
- 1.213936 0 2 tcp 1540 ------- 0 0.0 3.0 34 116
r 1.214816 2 3 tcp 1540 ------- 0 1.0 3.1 26 83
+ 1.214816 3 2 ack 40 ------- 0 3.1 1.0 26 120
- 1.214816 3 2 ack 40 ------- 0 3.1 1.0 26 120
r 1.214992 3 2 ack 40 ------- 0 3.0 0.0 21 104
+ 1.214992 2 0 ack 40 ------- 0 3.0 0.0 21 104
- 1.214992 2 0 ack 40 ------- 0 3.0 0.0 21 104
r 1.215168 2 0 ack 40 ------- 0 3.0 0.0 17 96
+ 1.215168 0 2 tcp 1540 ------- 0 0.0 3.0 35 121
+ 1.215168 0 2 tcp 1540 ------- 0 0.0 3.0 36 122
- 1.215168 1 2 tcp 1540 ------- 0 1.0 3.1 34 119