h 1 1 8 tcp 40 ------- 0 1.0 5.0 0 0
h 1 7 8 tcp 40 ------- 0 7.0 0.0 0 1
+ 1.01 1 8 tcp 40 ------- 0 1.0 5.0 0 0
- 1.01 1 8 tcp 40 ------- 0 1.0 5.0 0 0
+ 1.01 7 8 tcp 40 ------- 0 7.0 0.0 0 1
- 1.01 7 8 tcp 40 ------- 0 7.0 0.0 0 1
r 1.020072 8 5 tcp 40 ------- 0 1.0 5.0 0 0
h 1.020072 5 8 ack 40 ------- 0 5.0 1.0 0 2
r 1.020137 8 0 tcp 40 ------- 0 7.0 0.0 0 1
h 1.020137 0 8 ack 40 ------- 0 0.0 7.0 0 3
+ 1.030072 5 8 ack 40 ------- 0 5.0 1.0 0 2
- 1.030072 5 8 ack 40 ------- 0 5.0 1.0 0 2
+ 1.030137 0 8 ack 40 ------- 0 0.0 7.0 0 3
- 1.030137 0 8 ack 40 ------- 0 0.0 7.0 0 3
r 1.040127 8 1 ack 40 ------- 0 5.0 1.0 0 2
h 1.040127 1 8 tcp 1540 ------- 0 1.0 5.0 1 4
h 1.040127 1 8 tcp 1540 ------- 0 1.0 5.0 2 5
r 1.040192 8 7 ack 40 ------- 0 0.0 7.0 0 3
h 1.040192 7 8 tcp 1540 ------- 0 7.0 0.0 1 6
h 1.040192 7 8 tcp 1540 ------- 0 7.0 0.0 2 7
+ 1.050127 1 8 tcp 1540 ------- 0 1.0 5.0 1 4
- 1.050127 1 8 tcp 1540 ------- 0 1.0 5.0 1 4
+ 1.050127 1 8 tcp 1540 ------- 0 1.0 5.0 2 5
+ 1.050192 7 8 tcp 1540 ------- 0 7.0 0.0 1 6
- 1.050192 7 8 tcp 1540 ------- 0 7.0 0.0 1 6
+ 1.050192 7 8 tcp 1540 ------- 0 7.0 0.0 2 7
- 1.05138 1 8 tcp 1540 ------- 0 1.0 5.0 2 5
- 1.052722 7 8 tcp 1540 ------- 0 7.0 0.0 2 7
r 1.061374 8 5 tcp 1540 ------- 0 1.0 5.0 1 4
h 1.061374 5 8 ack 40 ------- 0 5.0 1.0 1 8
r 1.062716 8 0 tcp 1540 ------- 0 7.0 0.0 1 6
h 1.062716 0 8 ack 40 ------- 0 0.0 7.0 1 9
r 1.064041 8 0 tcp 1540 ------- 0 7.0 0.0 2 7
h 1.064041 0 8 ack 40 ------- 0 0.0 7.0 2 10
r 1.065298 8 5 tcp 1540 ------- 0 1.0 5.0 2 5
h 1.065298 5 8 ack 40 ------- 0 5.0 1.0 2 11
+ 1.071374 5 8 ack 40 ------- 0 5.0 1.0 1 8
- 1.071374 5 8 ack 40 ------- 0 5.0 1.0 1 8
+ 1.072716 0 8 ack 40 ------- 0 0.0 7.0 1 9
- 1.072716 0 8 ack 40 ------- 0 0.0 7.0 1 9
+ 1.074041 0 8 ack 40 ------- 0 0.0 7.0 2 10
- 1.074041 0 8 ack 40 ------- 0 0.0 7.0 2 10
+ 1.075298 5 8 ack 40 ------- 0 5.0 1.0 2 11
- 1.075298 5 8 ack 40 ------- 0 5.0 1.0 2 11
r 1.08143 8 1 ack 40 ------- 0 5.0 1.0 1 8
h 1.08143 1 8 tcp 1540 ------- 0 1.0 5.0 3 12
h 1.08143 1 8 tcp 1540 ------- 0 1.0 5.0 4 13
r 1.082771 8 7 ack 40 ------- 0 0.0 7.0 1 9
h 1.082771 7 8 tcp 1540 ------- 0 7.0 0.0 3 14
h 1.082771 7 8 tcp 1540 ------- 0 7.0 0.0 4 15
r 1.084096 8 7 ack 40 ------- 0 0.0 7.0 2 10
h 1.084096 7 8 tcp 1540 ------- 0 7.0 0.0 5 16
h 1.084096 7 8 tcp 1540 ------- 0 7.0 0.0 6 17
r 1.085353 8 1 ack 40 ------- 0 5.0 1.0 2 11
h 1.085353 1 8 tcp 1540 ------- 0 1.0 5.0 5 18
h 1.085353 1 8 tcp 1540 ------- 0 1.0 5.0 6 19
+ 1.09143 1 8 tcp 1540 ------- 0 1.0 5.0 3 12
- 1.09143 1 8 tcp 1540 ------- 0 1.0 5.0 3 12
+ 1.09143 1 8 tcp 1540 ------- 0 1.0 5.0 4 13
- 1.092682 1 8 tcp 1540 ------- 0 1.0 5.0 4 13
+ 1.092771 7 8 tcp 1540 ------- 0 7.0 0.0 3 14
- 1.092771 7 8 tcp 1540 ------- 0 7.0 0.0 3 14
+ 1.092771 7 8 tcp 1540 ------- 0 7.0 0.0 4 15
+ 1.094096 7 8 tcp 1540 ------- 0 7.0 0.0 5 16
+ 1.094096 7 8 tcp 1540 ------- 0 7.0 0.0 6 17
- 1.095192 7 8 tcp 1540 ------- 0 7.0 0.0 4 15
+ 1.095353 1 8 tcp 1540 ------- 0 1.0 5.0 5 18
- 1.095353 1 8 tcp 1540 ------- 0 1.0 5.0 5 18
+ 1.095353 1 8 tcp 1540 ------- 0 1.0 5.0 6 19
- 1.096445 7 8 tcp 1540 ------- 0 7.0 0.0 5 16
- 1.097735 1 8 tcp 1540 ------- 0 1.0 5.0 6 19
- 1.100317 7 8 tcp 1540 ------- 0 7.0 0.0 6 17
r 1.102677 8 5 tcp 1540 ------- 0 1.0 5.0 3 12
h 1.102677 5 8 ack 40 ------- 0 5.0 1.0 3 20
r 1.10393 8 5 tcp 1540 ------- 0 1.0 5.0 4 13
h 1.10393 5 8 ack 40 ------- 0 5.0 1.0 4 21
r 1.105186 8 0 tcp 1540 ------- 0 7.0 0.0 3 14
h 1.105186 0 8 ack 40 ------- 0 0.0 7.0 3 22
r 1.106439 8 0 tcp 1540 ------- 0 7.0 0.0 4 15
h 1.106439 0 8 ack 40 ------- 0 0.0 7.0 4 23
r 1.10773 8 5 tcp 1540 ------- 0 1.0 5.0 5 18
h 1.10773 5 8 ack 40 ------- 0 5.0 1.0 5 24
r 1.109054 8 5 tcp 1540 ------- 0 1.0 5.0 6 19
h 1.109054 5 8 ack 40 ------- 0 5.0 1.0 6 25
r 1.110311 8 0 tcp 1540 ------- 0 7.0 0.0 5 16
h 1.110311 0 8 ack 40 ------- 0 0.0 7.0 5 26
r 1.111564 8 0 tcp 1540 ------- 0 7.0 0.0 6 17
h 1.111564 0 8 ack 40 ------- 0 0.0 7.0 6 27
+ 1.112677 5 8 ack 40 ------- 0 5.0 1.0 3 20
- 1.112677 5 8 ack 40 ------- 0 5.0 1.0 3 20
+ 1.11393 5 8 ack 40 ------- 0 5.0 1.0 4 21
- 1.11393 5 8 ack 40 ------- 0 5.0 1.0 4 21
+ 1.115186 0 8 ack 40 ------- 0 0.0 7.0 3 22
- 1.115186 0 8 ack 40 ------- 0 0.0 7.0 3 22
+ 1.116439 0 8 ack 40 ------- 0 0.0 7.0 4 23
- 1.116439 0 8 ack 40 ------- 0 0.0 7.0 4 23
+ 1.11773 5 8 ack 40 ------- 0 5.0 1.0 5 24
- 1.11773 5 8 ack 40 ------- 0 5.0 1.0 5 24
+ 1.119054 5 8 ack 40 ------- 0 5.0 1.0 6 25
- 1.119054 5 8 ack 40 ------- 0 5.0 1.0 6 25
+ 1.120311 0 8 ack 40 ------- 0 0.0 7.0 5 26
- 1.120311 0 8 ack 40 ------- 0 0.0 7.0 5 26
+ 1.121564 0 8 ack 40 ------- 0 0.0 7.0 6 27
- 1.121564 0 8 ack 40 ------- 0 0.0 7.0 6 27
r 1.122732 8 1 ack 40 ------- 0 5.0 1.0 3 20
h 1.122732 1 8 tcp 1540 ------- 0 1.0 5.0 7 28
h 1.122732 1 8 tcp 1540 ------- 0 1.0 5.0 8 29
r 1.123985 8 1 ack 40 ------- 0 5.0 1.0 4 21
h 1.123985 1 8 tcp 1540 ------- 0 1.0 5.0 9 30
h 1.123985 1 8 tcp 1540 ------- 0 1.0 5.0 10 31
r 1.125242 8 7 ack 40 ------- 0 0.0 7.0 3 22
h 1.125242 7 8 tcp 1540 ------- 0 7.0 0.0 7 32
h 1.125242 7 8 tcp 1540 ------- 0 7.0 0.0 8 33
r 1.126494 8 7 ack 40 ------- 0 0.0 7.0 4 23
h 1.126494 7 8 tcp 1540 ------- 0 7.0 0.0 9 34
h 1.126494 7 8 tcp 1540 ------- 0 7.0 0.0 10 35
r 1.127785 8 1 ack 40 ------- 0 5.0 1.0 5 24
h 1.127785 1 8 tcp 1540 ------- 0 1.0 5.0 11 36
h 1.127785 1 8 tcp 1540 ------- 0 1.0 5.0 12 37
r 1.12911 8 1 ack 40 ------- 0 5.0 1.0 6 25
h 1.12911 1 8 tcp 1540 ------- 0 1.0 5.0 13 38
h 1.12911 1 8 tcp 1540 ------- 0 1.0 5.0 14 39
r 1.130366 8 7 ack 40 ------- 0 0.0 7.0 5 26
h 1.130366 7 8 tcp 1540 ------- 0 7.0 0.0 11 40
h 1.130366 7 8 tcp 1540 ------- 0 7.0 0.0 12 41
r 1.131619 8 7 ack 40 ------- 0 0.0 7.0 6 27
h 1.131619 7 8 tcp 1540 ------- 0 7.0 0.0 13 42
h 1.131619 7 8 tcp 1540 ------- 0 7.0 0.0 14 43
+ 1.132732 1 8 tcp 1540 ------- 0 1.0 5.0 7 28
- 1.132732 1 8 tcp 1540 ------- 0 1.0 5.0 7 28
+ 1.132732 1 8 tcp 1540 ------- 0 1.0 5.0 8 29
+ 1.133985 1 8 tcp 1540 ------- 0 1.0 5.0 9 30
+ 1.133985 1 8 tcp 1540 ------- 0 1.0 5.0 10 31
- 1.133985 1 8 tcp 1540 ------- 0 1.0 5.0 8 29
- 1.135238 1 8 tcp 1540 ------- 0 1.0 5.0 9 30
+ 1.135242 7 8 tcp 1540 ------- 0 7.0 0.0 7 32
- 1.135242 7 8 tcp 1540 ------- 0 7.0 0.0 7 32
+ 1.135242 7 8 tcp 1540 ------- 0 7.0 0.0 8 33
+ 1.136494 7 8 tcp 1540 ------- 0 7.0 0.0 9 34
+ 1.136494 7 8 tcp 1540 ------- 0 7.0 0.0 10 35
- 1.136579 7 8 tcp 1540 ------- 0 7.0 0.0 8 33
+ 1.137785 1 8 tcp 1540 ------- 0 1.0 5.0 11 36
+ 1.137785 1 8 tcp 1540 ------- 0 1.0 5.0 12 37
- 1.137853 7 8 tcp 1540 ------- 0 7.0 0.0 9 34
+ 1.13911 1 8 tcp 1540 ------- 0 1.0 5.0 13 38
+ 1.13911 1 8 tcp 1540 ------- 0 1.0 5.0 14 39
- 1.139178 7 8 tcp 1540 ------- 0 7.0 0.0 10 35
+ 1.140366 7 8 tcp 1540 ------- 0 7.0 0.0 11 40
+ 1.140366 7 8 tcp 1540 ------- 0 7.0 0.0 12 41
- 1.140618 7 8 tcp 1540 ------- 0 7.0 0.0 11 40
+ 1.141619 7 8 tcp 1540 ------- 0 7.0 0.0 13 42
+ 1.141619 7 8 tcp 1540 ------- 0 7.0 0.0 14 43
- 1.141942 7 8 tcp 1540 ------- 0 7.0 0.0 12 41
- 1.143195 7 8 tcp 1540 ------- 0 7.0 0.0 13 42
r 1.143979 8 5 tcp 1540 ------- 0 1.0 5.0 7 28
h 1.143979 5 8 ack 40 ------- 0 5.0 1.0 7 44
- 1.144448 7 8 tcp 1540 ------- 0 7.0 0.0 14 43
r 1.145232 8 5 tcp 1540 ------- 0 1.0 5.0 8 29
h 1.145232 5 8 ack 40 ------- 0 5.0 1.0 8 45
r 1.146574 8 0 tcp 1540 ------- 0 7.0 0.0 7 32
h 1.146574 0 8 ack 40 ------- 0 0.0 7.0 7 46
r 1.147847 8 0 tcp 1540 ------- 0 7.0 0.0 8 33
h 1.147847 0 8 ack 40 ------- 0 0.0 7.0 8 47
r 1.149172 8 0 tcp 1540 ------- 0 7.0 0.0 9 34
h 1.149172 0 8 ack 40 ------- 0 0.0 7.0 9 48
r 1.150612 8 0 tcp 1540 ------- 0 7.0 0.0 10 35
h 1.150612 0 8 ack 40 ------- 0 0.0 7.0 10 49
r 1.151937 8 0 tcp 1540 ------- 0 7.0 0.0 11 40
h 1.151937 0 8 ack 40 ------- 0 0.0 7.0 11 50
r 1.15319 8 0 tcp 1540 ------- 0 7.0 0.0 12 41
h 1.15319 0 8 ack 40 ------- 0 0.0 7.0 12 51
+ 1.153979 5 8 ack 40 ------- 0 5.0 1.0 7 44
- 1.153979 5 8 ack 40 ------- 0 5.0 1.0 7 44
r 1.154442 8 0 tcp 1540 ------- 0 7.0 0.0 13 42
h 1.154442 0 8 ack 40 ------- 0 0.0 7.0 13 52
+ 1.155232 5 8 ack 40 ------- 0 5.0 1.0 8 45
- 1.155232 5 8 ack 40 ------- 0 5.0 1.0 8 45
- 1.155702 1 8 tcp 1540 ------- 0 1.0 5.0 10 31
r 1.155767 8 0 tcp 1540 ------- 0 7.0 0.0 14 43
h 1.155767 0 8 ack 40 ------- 0 0.0 7.0 14 53
+ 1.156574 0 8 ack 40 ------- 0 0.0 7.0 7 46
- 1.156574 0 8 ack 40 ------- 0 0.0 7.0 7 46
- 1.157039 1 8 tcp 1540 ------- 0 1.0 5.0 11 36
+ 1.157847 0 8 ack 40 ------- 0 0.0 7.0 8 47
- 1.158493 1 8 tcp 1540 ------- 0 1.0 5.0 12 37
+ 1.159172 0 8 ack 40 ------- 0 0.0 7.0 9 48
- 1.159818 1 8 tcp 1540 ------- 0 1.0 5.0 13 38
+ 1.160612 0 8 ack 40 ------- 0 0.0 7.0 10 49
- 1.161091 1 8 tcp 1540 ------- 0 1.0 5.0 14 39
+ 1.161937 0 8 ack 40 ------- 0 0.0 7.0 11 50
- 1.162481 0 8 ack 40 ------- 0 0.0 7.0 8 47
- 1.162542 0 8 ack 40 ------- 0 0.0 7.0 9 48
- 1.162602 0 8 ack 40 ------- 0 0.0 7.0 10 49
- 1.162663 0 8 ack 40 ------- 0 0.0 7.0 11 50
+ 1.16319 0 8 ack 40 ------- 0 0.0 7.0 12 51
- 1.16319 0 8 ack 40 ------- 0 0.0 7.0 12 51
r 1.164034 8 1 ack 40 ------- 0 5.0 1.0 7 44
h 1.164034 1 8 tcp 1540 ------- 0 1.0 5.0 15 54
h 1.164034 1 8 tcp 1540 ------- 0 1.0 5.0 16 55
+ 1.164442 0 8 ack 40 ------- 0 0.0 7.0 13 52
- 1.164442 0 8 ack 40 ------- 0 0.0 7.0 13 52
r 1.165696 8 5 tcp 1540 ------- 0 1.0 5.0 9 30
h 1.165696 5 8 ack 40 ------- 0 5.0 1.0 9 56
+ 1.165767 0 8 ack 40 ------- 0 0.0 7.0 14 53
- 1.165767 0 8 ack 40 ------- 0 0.0 7.0 14 53
r 1.167034 8 5 tcp 1540 ------- 0 1.0 5.0 10 31
h 1.167034 5 8 ack 40 ------- 0 5.0 1.0 10 57
r 1.167111 8 1 ack 40 ------- 0 5.0 1.0 8 45
h 1.167111 1 8 tcp 1540 ------- 0 1.0 5.0 17 58
h 1.167111 1 8 tcp 1540 ------- 0 1.0 5.0 18 59
r 1.168487 8 5 tcp 1540 ------- 0 1.0 5.0 11 36
h 1.168487 5 8 ack 40 ------- 0 5.0 1.0 11 60
r 1.169812 8 5 tcp 1540 ------- 0 1.0 5.0 12 37
h 1.169812 5 8 ack 40 ------- 0 5.0 1.0 12 61
r 1.171086 8 5 tcp 1540 ------- 0 1.0 5.0 13 38
h 1.171086 5 8 ack 40 ------- 0 5.0 1.0 13 62
r 1.17241 8 5 tcp 1540 ------- 0 1.0 5.0 14 39
h 1.17241 5 8 ack 40 ------- 0 5.0 1.0 14 63
r 1.172475 8 7 ack 40 ------- 0 0.0 7.0 7 46
h 1.172475 7 8 tcp 1540 ------- 0 7.0 0.0 15 64
h 1.172475 7 8 tcp 1540 ------- 0 7.0 0.0 16 65
r 1.172536 8 7 ack 40 ------- 0 0.0 7.0 8 47
h 1.172536 7 8 tcp 1540 ------- 0 7.0 0.0 17 66
h 1.172536 7 8 tcp 1540 ------- 0 7.0 0.0 18 67
r 1.172597 8 7 ack 40 ------- 0 0.0 7.0 9 48
h 1.172597 7 8 tcp 1540 ------- 0 7.0 0.0 19 68
h 1.172597 7 8 tcp 1540 ------- 0 7.0 0.0 20 69
r 1.172658 8 7 ack 40 ------- 0 0.0 7.0 10 49
h 1.172658 7 8 tcp 1540 ------- 0 7.0 0.0 21 70
h 1.172658 7 8 tcp 1540 ------- 0 7.0 0.0 22 71
r 1.172718 8 7 ack 40 ------- 0 0.0 7.0 11 50
h 1.172718 7 8 tcp 1540 ------- 0 7.0 0.0 23 72
h 1.172718 7 8 tcp 1540 ------- 0 7.0 0.0 24 73
r 1.173245 8 7 ack 40 ------- 0 0.0 7.0 12 51
h 1.173245 7 8 tcp 1540 ------- 0 7.0 0.0 25 74
h 1.173245 7 8 tcp 1540 ------- 0 7.0 0.0 26 75
+ 1.174034 1 8 tcp 1540 ------- 0 1.0 5.0 15 54
- 1.174034 1 8 tcp 1540 ------- 0 1.0 5.0 15 54
+ 1.174034 1 8 tcp 1540 ------- 0 1.0 5.0 16 55
r 1.174498 8 7 ack 40 ------- 0 0.0 7.0 13 52
h 1.174498 7 8 tcp 1540 ------- 0 7.0 0.0 27 76
h 1.174498 7 8 tcp 1540 ------- 0 7.0 0.0 28 77
- 1.175287 1 8 tcp 1540 ------- 0 1.0 5.0 16 55
+ 1.175696 5 8 ack 40 ------- 0 5.0 1.0 9 56
- 1.175696 5 8 ack 40 ------- 0 5.0 1.0 9 56
r 1.175822 8 7 ack 40 ------- 0 0.0 7.0 14 53
h 1.175822 7 8 tcp 1540 ------- 0 7.0 0.0 29 78
h 1.175822 7 8 tcp 1540 ------- 0 7.0 0.0 30 79
+ 1.177034 5 8 ack 40 ------- 0 5.0 1.0 10 57
- 1.177034 5 8 ack 40 ------- 0 5.0 1.0 10 57
+ 1.177111 1 8 tcp 1540 ------- 0 1.0 5.0 17 58
- 1.177111 1 8 tcp 1540 ------- 0 1.0 5.0 17 58
+ 1.177111 1 8 tcp 1540 ------- 0 1.0 5.0 18 59
- 1.178364 1 8 tcp 1540 ------- 0 1.0 5.0 18 59
+ 1.178487 5 8 ack 40 ------- 0 5.0 1.0 11 60
- 1.178487 5 8 ack 40 ------- 0 5.0 1.0 11 60
+ 1.179812 5 8 ack 40 ------- 0 5.0 1.0 12 61
- 1.179812 5 8 ack 40 ------- 0 5.0 1.0 12 61
+ 1.181086 5 8 ack 40 ------- 0 5.0 1.0 13 62
- 1.181086 5 8 ack 40 ------- 0 5.0 1.0 13 62
+ 1.18241 5 8 ack 40 ------- 0 5.0 1.0 14 63
- 1.18241 5 8 ack 40 ------- 0 5.0 1.0 14 63
+ 1.182475 7 8 tcp 1540 ------- 0 7.0 0.0 15 64
- 1.182475 7 8 tcp 1540 ------- 0 7.0 0.0 15 64
+ 1.182475 7 8 tcp 1540 ------- 0 7.0 0.0 16 65
+ 1.182536 7 8 tcp 1540 ------- 0 7.0 0.0 17 66
+ 1.182536 7 8 tcp 1540 ------- 0 7.0 0.0 18 67
+ 1.182597 7 8 tcp 1540 ------- 0 7.0 0.0 19 68
+ 1.182597 7 8 tcp 1540 ------- 0 7.0 0.0 20 69
+ 1.182658 7 8 tcp 1540 ------- 0 7.0 0.0 21 70
+ 1.182658 7 8 tcp 1540 ------- 0 7.0 0.0 22 71
+ 1.182718 7 8 tcp 1540 ------- 0 7.0 0.0 23 72
+ 1.182718 7 8 tcp 1540 ------- 0 7.0 0.0 24 73
+ 1.183245 7 8 tcp 1540 ------- 0 7.0 0.0 25 74
+ 1.183245 7 8 tcp 1540 ------- 0 7.0 0.0 26 75
- 1.183728 7 8 tcp 1540 ------- 0 7.0 0.0 16 65
+ 1.184498 7 8 tcp 1540 ------- 0 7.0 0.0 27 76
+ 1.184498 7 8 tcp 1540 ------- 0 7.0 0.0 28 77
- 1.184981 7 8 tcp 1540 ------- 0 7.0 0.0 17 66
r 1.185282 8 5 tcp 1540 ------- 0 1.0 5.0 15 54
h 1.185282 5 8 ack 40 ------- 0 5.0 1.0 15 80
+ 1.185822 7 8 tcp 1540 ------- 0 7.0 0.0 29 78
+ 1.185822 7 8 tcp 1540 ------- 0 7.0 0.0 30 79
- 1.186234 7 8 tcp 1540 ------- 0 7.0 0.0 18 67
r 1.186534 8 5 tcp 1540 ------- 0 1.0 5.0 16 55
h 1.186534 5 8 ack 40 ------- 0 5.0 1.0 16 81
r 1.186599 8 1 ack 40 ------- 0 5.0 1.0 9 56
h 1.186599 1 8 tcp 1540 ------- 0 1.0 5.0 19 82
h 1.186599 1 8 tcp 1540 ------- 0 1.0 5.0 20 83
r 1.187089 8 1 ack 40 ------- 0 5.0 1.0 10 57
h 1.187089 1 8 tcp 1540 ------- 0 1.0 5.0 21 84
h 1.187089 1 8 tcp 1540 ------- 0 1.0 5.0 22 85
- 1.187486 7 8 tcp 1540 ------- 0 7.0 0.0 19 68
r 1.188358 8 5 tcp 1540 ------- 0 1.0 5.0 17 58
h 1.188358 5 8 ack 40 ------- 0 5.0 1.0 17 86
- 1.188739 7 8 tcp 1540 ------- 0 7.0 0.0 20 69
r 1.189611 8 5 tcp 1540 ------- 0 1.0 5.0 18 59
h 1.189611 5 8 ack 40 ------- 0 5.0 1.0 18 87
r 1.189676 8 1 ack 40 ------- 0 5.0 1.0 11 60
h 1.189676 1 8 tcp 1540 ------- 0 1.0 5.0 23 88
h 1.189676 1 8 tcp 1540 ------- 0 1.0 5.0 24 89
r 1.189867 8 1 ack 40 ------- 0 5.0 1.0 12 61
h 1.189867 1 8 tcp 1540 ------- 0 1.0 5.0 25 90
h 1.189867 1 8 tcp 1540 ------- 0 1.0 5.0 26 91
- 1.189992 7 8 tcp 1540 ------- 0 7.0 0.0 21 70
r 1.191141 8 1 ack 40 ------- 0 5.0 1.0 13 62
h 1.191141 1 8 tcp 1540 ------- 0 1.0 5.0 27 92
h 1.191141 1 8 tcp 1540 ------- 0 1.0 5.0 28 93
- 1.191245 7 8 tcp 1540 ------- 0 7.0 0.0 22 71
r 1.192466 8 1 ack 40 ------- 0 5.0 1.0 14 63
h 1.192466 1 8 tcp 1540 ------- 0 1.0 5.0 29 94
h 1.192466 1 8 tcp 1540 ------- 0 1.0 5.0 30 95
- 1.192498 7 8 tcp 1540 ------- 0 7.0 0.0 23 72
r 1.193722 8 0 tcp 1540 ------- 0 7.0 0.0 15 64
h 1.193722 0 8 ack 40 ------- 0 0.0 7.0 15 96
- 1.19375 7 8 tcp 1540 ------- 0 7.0 0.0 24 73
r 1.194975 8 0 tcp 1540 ------- 0 7.0 0.0 16 65
h 1.194975 0 8 ack 40 ------- 0 0.0 7.0 16 97
- 1.195003 7 8 tcp 1540 ------- 0 7.0 0.0 25 74
+ 1.195282 5 8 ack 40 ------- 0 5.0 1.0 15 80
- 1.195282 5 8 ack 40 ------- 0 5.0 1.0 15 80
r 1.196228 8 0 tcp 1540 ------- 0 7.0 0.0 17 66
h 1.196228 0 8 ack 40 ------- 0 0.0 7.0 17 98
- 1.196256 7 8 tcp 1540 ------- 0 7.0 0.0 26 75
+ 1.196534 5 8 ack 40 ------- 0 5.0 1.0 16 81
- 1.196534 5 8 ack 40 ------- 0 5.0 1.0 16 81
+ 1.196599 1 8 tcp 1540 ------- 0 1.0 5.0 19 82
- 1.196599 1 8 tcp 1540 ------- 0 1.0 5.0 19 82
+ 1.196599 1 8 tcp 1540 ------- 0 1.0 5.0 20 83
+ 1.197089 1 8 tcp 1540 ------- 0 1.0 5.0 21 84
+ 1.197089 1 8 tcp 1540 ------- 0 1.0 5.0 22 85
r 1.197481 8 0 tcp 1540 ------- 0 7.0 0.0 18 67
h 1.197481 0 8 ack 40 ------- 0 0.0 7.0 18 99
- 1.19759 7 8 tcp 1540 ------- 0 7.0 0.0 27 76
+ 1.198358 5 8 ack 40 ------- 0 5.0 1.0 17 86
r 1.198734 8 0 tcp 1540 ------- 0 7.0 0.0 19 68
h 1.198734 0 8 ack 40 ------- 0 0.0 7.0 19 100
- 1.198864 7 8 tcp 1540 ------- 0 7.0 0.0 28 77
+ 1.199611 5 8 ack 40 ------- 0 5.0 1.0 18 87
+ 1.199676 1 8 tcp 1540 ------- 0 1.0 5.0 23 88
+ 1.199676 1 8 tcp 1540 ------- 0 1.0 5.0 24 89
+ 1.199867 1 8 tcp 1540 ------- 0 1.0 5.0 25 90
+ 1.199867 1 8 tcp 1540 ------- 0 1.0 5.0 26 91
r 1.199986 8 0 tcp 1540 ------- 0 7.0 0.0 20 69
h 1.199986 0 8 ack 40 ------- 0 0.0 7.0 20 101
- 1.200206 1 8 tcp 1540 ------- 0 1.0 5.0 20 83
+ 1.201141 1 8 tcp 1540 ------- 0 1.0 5.0 27 92
+ 1.201141 1 8 tcp 1540 ------- 0 1.0 5.0 28 93
r 1.201239 8 0 tcp 1540 ------- 0 7.0 0.0 21 70
h 1.201239 0 8 ack 40 ------- 0 0.0 7.0 21 102
- 1.201479 1 8 tcp 1540 ------- 0 1.0 5.0 21 84
+ 1.202466 1 8 tcp 1540 ------- 0 1.0 5.0 29 94
+ 1.202466 1 8 tcp 1540 ------- 0 1.0 5.0 30 95
r 1.202492 8 0 tcp 1540 ------- 0 7.0 0.0 22 71
h 1.202492 0 8 ack 40 ------- 0 0.0 7.0 22 103
- 1.202804 1 8 tcp 1540 ------- 0 1.0 5.0 22 85
+ 1.203722 0 8 ack 40 ------- 0 0.0 7.0 15 96
- 1.203722 0 8 ack 40 ------- 0 0.0 7.0 15 96
r 1.203745 8 0 tcp 1540 ------- 0 7.0 0.0 23 72
h 1.203745 0 8 ack 40 ------- 0 0.0 7.0 23 104
- 1.204129 1 8 tcp 1540 ------- 0 1.0 5.0 23 88
+ 1.204975 0 8 ack 40 ------- 0 0.0 7.0 16 97
r 1.204998 8 0 tcp 1540 ------- 0 7.0 0.0 24 73
h 1.204998 0 8 ack 40 ------- 0 0.0 7.0 24 105
- 1.205402 1 8 tcp 1540 ------- 0 1.0 5.0 24 89
+ 1.206228 0 8 ack 40 ------- 0 0.0 7.0 17 98
r 1.20625 8 0 tcp 1540 ------- 0 7.0 0.0 25 74
h 1.20625 0 8 ack 40 ------- 0 0.0 7.0 25 106
r 1.206328 8 1 ack 40 ------- 0 5.0 1.0 15 80
h 1.206328 1 8 tcp 1540 ------- 0 1.0 5.0 31 107
h 1.206328 1 8 tcp 1540 ------- 0 1.0 5.0 32 108
- 1.206676 1 8 tcp 1540 ------- 0 1.0 5.0 25 90
+ 1.207481 0 8 ack 40 ------- 0 0.0 7.0 18 99
r 1.207585 8 0 tcp 1540 ------- 0 7.0 0.0 26 75
h 1.207585 0 8 ack 40 ------- 0 0.0 7.0 26 109
- 1.208001 1 8 tcp 1540 ------- 0 1.0 5.0 26 91
+ 1.208734 0 8 ack 40 ------- 0 0.0 7.0 19 100
r 1.208858 8 0 tcp 1540 ------- 0 7.0 0.0 27 76
h 1.208858 0 8 ack 40 ------- 0 0.0 7.0 27 110
- 1.209274 1 8 tcp 1540 ------- 0 1.0 5.0 27 92
+ 1.209986 0 8 ack 40 ------- 0 0.0 7.0 20 101
r 1.2102 8 5 tcp 1540 ------- 0 1.0 5.0 19 82
h 1.2102 5 8 ack 40 ------- 0 5.0 1.0 19 111
- 1.210599 1 8 tcp 1540 ------- 0 1.0 5.0 28 93
+ 1.211239 0 8 ack 40 ------- 0 0.0 7.0 21 102
r 1.211474 8 5 tcp 1540 ------- 0 1.0 5.0 20 83
h 1.211474 5 8 ack 40 ------- 0 5.0 1.0 20 112
- 1.211852 1 8 tcp 1540 ------- 0 1.0 5.0 29 94
+ 1.212492 0 8 ack 40 ------- 0 0.0 7.0 22 103
r 1.212798 8 5 tcp 1540 ------- 0 1.0 5.0 21 84
h 1.212798 5 8 ack 40 ------- 0 5.0 1.0 21 113
- 1.213177 1 8 tcp 1540 ------- 0 1.0 5.0 30 95
+ 1.213745 0 8 ack 40 ------- 0 0.0 7.0 23 104
r 1.214123 8 5 tcp 1540 ------- 0 1.0 5.0 22 85
h 1.214123 5 8 ack 40 ------- 0 5.0 1.0 22 114
- 1.214566 0 8 ack 40 ------- 0 0.0 7.0 16 97
- 1.214627 0 8 ack 40 ------- 0 0.0 7.0 17 98
- 1.214688 0 8 ack 40 ------- 0 0.0 7.0 18 99
- 1.214749 0 8 ack 40 ------- 0 0.0 7.0 19 100
- 1.21481 0 8 ack 40 ------- 0 0.0 7.0 20 101
- 1.21487 0 8 ack 40 ------- 0 0.0 7.0 21 102
- 1.214931 0 8 ack 40 ------- 0 0.0 7.0 22 103
- 1.214992 0 8 ack 40 ------- 0 0.0 7.0 23 104
+ 1.214998 0 8 ack 40 ------- 0 0.0 7.0 24 105
- 1.215053 0 8 ack 40 ------- 0 0.0 7.0 24 105
- 1.215251 5 8 ack 40 ------- 0 5.0 1.0 17 86
- 1.215312 5 8 ack 40 ------- 0 5.0 1.0 18 87
r 1.215397 8 5 tcp 1540 ------- 0 1.0 5.0 23 88
h 1.215397 5 8 ack 40 ------- 0 5.0 1.0 23 115
+ 1.21625 0 8 ack 40 ------- 0 0.0 7.0 25 106
- 1.21625 0 8 ack 40 ------- 0 0.0 7.0 25 106
+ 1.216328 1 8 tcp 1540 ------- 0 1.0 5.0 31 107
- 1.216328 1 8 tcp 1540 ------- 0 1.0 5.0 31 107
+ 1.216328 1 8 tcp 1540 ------- 0 1.0 5.0 32 108
r 1.21667 8 5 tcp 1540 ------- 0 1.0 5.0 24 89
h 1.21667 5 8 ack 40 ------- 0 5.0 1.0 24 116
- 1.217581 1 8 tcp 1540 ------- 0 1.0 5.0 32 108
+ 1.217585 0 8 ack 40 ------- 0 0.0 7.0 26 109
- 1.217585 0 8 ack 40 ------- 0 0.0 7.0 26 109
r 1.217995 8 5 tcp 1540 ------- 0 1.0 5.0 25 90
h 1.217995 5 8 ack 40 ------- 0 5.0 1.0 25 117
+ 1.218858 0 8 ack 40 ------- 0 0.0 7.0 27 110
- 1.218858 0 8 ack 40 ------- 0 0.0 7.0 27 110
r 1.219269 8 5 tcp 1540 ------- 0 1.0 5.0 26 91
h 1.219269 5 8 ack 40 ------- 0 5.0 1.0 26 118
+ 1.2202 5 8 ack 40 ------- 0 5.0 1.0 19 111
- 1.2202 5 8 ack 40 ------- 0 5.0 1.0 19 111
- 1.220342 7 8 tcp 1540 ------- 0 7.0 0.0 29 78
r 1.220594 8 5 tcp 1540 ------- 0 1.0 5.0 27 92
h 1.220594 5 8 ack 40 ------- 0 5.0 1.0 27 119
+ 1.221474 5 8 ack 40 ------- 0 5.0 1.0 20 112
- 1.221474 5 8 ack 40 ------- 0 5.0 1.0 20 112
- 1.221677 7 8 tcp 1540 ------- 0 7.0 0.0 30 79
r 1.221846 8 5 tcp 1540 ------- 0 1.0 5.0 28 93
h 1.221846 5 8 ack 40 ------- 0 5.0 1.0 28 120
+ 1.222798 5 8 ack 40 ------- 0 5.0 1.0 21 113
- 1.223015 5 8 ack 40 ------- 0 5.0 1.0 21 113
r 1.223171 8 5 tcp 1540 ------- 0 1.0 5.0 29 94
h 1.223171 5 8 ack 40 ------- 0 5.0 1.0 29 121
+ 1.224123 5 8 ack 40 ------- 0 5.0 1.0 22 114
- 1.224123 5 8 ack 40 ------- 0 5.0 1.0 22 114
r 1.224496 8 5 tcp 1540 ------- 0 1.0 5.0 30 95
h 1.224496 5 8 ack 40 ------- 0 5.0 1.0 30 122
r 1.224561 8 7 ack 40 ------- 0 0.0 7.0 15 96
h 1.224561 7 8 tcp 1540 ------- 0 7.0 0.0 31 123
h 1.224561 7 8 tcp 1540 ------- 0 7.0 0.0 32 124
r 1.224622 8 7 ack 40 ------- 0 0.0 7.0 16 97
h 1.224622 7 8 tcp 1540 ------- 0 7.0 0.0 33 125
h 1.224622 7 8 tcp 1540 ------- 0 7.0 0.0 34 126
r 1.224682 8 7 ack 40 ------- 0 0.0 7.0 17 98
h 1.224682 7 8 tcp 1540 ------- 0 7.0 0.0 35 127
h 1.224682 7 8 tcp 1540 ------- 0 7.0 0.0 36 128
r 1.224743 8 7 ack 40 ------- 0 0.0 7.0 18 99
h 1.224743 7 8 tcp 1540 ------- 0 7.0 0.0 37 129
h 1.224743 7 8 tcp 1540 ------- 0 7.0 0.0 38 130
r 1.224804 8 7 ack 40 ------- 0 0.0 7.0 19 100
h 1.224804 7 8 tcp 1540 ------- 0 7.0 0.0 39 131
r 1.224865 8 7 ack 40 ------- 0 0.0 7.0 20 101
h 1.224865 7 8 tcp 1540 ------- 0 7.0 0.0 40 132
r 1.224926 8 7 ack 40 ------- 0 0.0 7.0 21 102
h 1.224926 7 8 tcp 1540 ------- 0 7.0 0.0 41 133
r 1.224986 8 7 ack 40 ------- 0 0.0 7.0 22 103
h 1.224986 7 8 tcp 1540 ------- 0 7.0 0.0 42 134
r 1.225047 8 7 ack 40 ------- 0 0.0 7.0 23 104
h 1.225047 7 8 tcp 1540 ------- 0 7.0 0.0 43 135
r 1.225108 8 7 ack 40 ------- 0 0.0 7.0 24 105
h 1.225108 7 8 tcp 1540 ------- 0 7.0 0.0 44 136
r 1.225246 8 1 ack 40 ------- 0 5.0 1.0 16 81
h 1.225246 1 8 tcp 1540 ------- 0 1.0 5.0 33 137
h 1.225246 1 8 tcp 1540 ------- 0 1.0 5.0 34 138
r 1.225306 8 1 ack 40 ------- 0 5.0 1.0 17 86
h 1.225306 1 8 tcp 1540 ------- 0 1.0 5.0 35 139
h 1.225306 1 8 tcp 1540 ------- 0 1.0 5.0 36 140
r 1.225367 8 1 ack 40 ------- 0 5.0 1.0 18 87
h 1.225367 1 8 tcp 1540 ------- 0 1.0 5.0 37 141
h 1.225367 1 8 tcp 1540 ------- 0 1.0 5.0 38 142
+ 1.225397 5 8 ack 40 ------- 0 5.0 1.0 23 115
- 1.225397 5 8 ack 40 ------- 0 5.0 1.0 23 115
r 1.226306 8 7 ack 40 ------- 0 0.0 7.0 25 106
h 1.226306 7 8 tcp 1540 ------- 0 7.0 0.0 45 143
+ 1.22667 5 8 ack 40 ------- 0 5.0 1.0 24 116
- 1.22667 5 8 ack 40 ------- 0 5.0 1.0 24 116
r 1.227575 8 5 tcp 1540 ------- 0 1.0 5.0 31 107
h 1.227575 5 8 ack 40 ------- 0 5.0 1.0 31 144
r 1.227725 8 7 ack 40 ------- 0 0.0 7.0 26 109
h 1.227725 7 8 tcp 1540 ------- 0 7.0 0.0 46 145
+ 1.227995 5 8 ack 40 ------- 0 5.0 1.0 25 117
- 1.227995 5 8 ack 40 ------- 0 5.0 1.0 25 117
r 1.229015 8 5 tcp 1540 ------- 0 1.0 5.0 32 108
h 1.229015 5 8 ack 40 ------- 0 5.0 1.0 32 146
r 1.22908 8 7 ack 40 ------- 0 0.0 7.0 27 110
h 1.22908 7 8 tcp 1540 ------- 0 7.0 0.0 47 147
+ 1.229269 5 8 ack 40 ------- 0 5.0 1.0 26 118
- 1.229269 5 8 ack 40 ------- 0 5.0 1.0 26 118
r 1.230337 8 0 tcp 1540 ------- 0 7.0 0.0 28 77
h 1.230337 0 8 ack 40 ------- 0 0.0 7.0 28 148
r 1.230414 8 1 ack 40 ------- 0 5.0 1.0 19 111
h 1.230414 1 8 tcp 1540 ------- 0 1.0 5.0 39 149
+ 1.230594 5 8 ack 40 ------- 0 5.0 1.0 27 119
- 1.230594 5 8 ack 40 ------- 0 5.0 1.0 27 119
r 1.231671 8 0 tcp 1540 ------- 0 7.0 0.0 29 78
h 1.231671 0 8 ack 40 ------- 0 0.0 7.0 29 150
+ 1.231846 5 8 ack 40 ------- 0 5.0 1.0 28 120
- 1.231846 5 8 ack 40 ------- 0 5.0 1.0 28 120
r 1.232945 8 0 tcp 1540 ------- 0 7.0 0.0 30 79
h 1.232945 0 8 ack 40 ------- 0 0.0 7.0 30 151
r 1.23301 8 1 ack 40 ------- 0 5.0 1.0 20 112
h 1.23301 1 8 tcp 1540 ------- 0 1.0 5.0 40 152
r 1.23307 8 1 ack 40 ------- 0 5.0 1.0 21 113
h 1.23307 1 8 tcp 1540 ------- 0 1.0 5.0 41 153
+ 1.233171 5 8 ack 40 ------- 0 5.0 1.0 29 121
- 1.233171 5 8 ack 40 ------- 0 5.0 1.0 29 121
r 1.234178 8 1 ack 40 ------- 0 5.0 1.0 22 114
h 1.234178 1 8 tcp 1540 ------- 0 1.0 5.0 42 154
+ 1.234496 5 8 ack 40 ------- 0 5.0 1.0 30 122
- 1.234496 5 8 ack 40 ------- 0 5.0 1.0 30 122
+ 1.234561 7 8 tcp 1540 ------- 0 7.0 0.0 31 123
- 1.234561 7 8 tcp 1540 ------- 0 7.0 0.0 31 123
+ 1.234561 7 8 tcp 1540 ------- 0 7.0 0.0 32 124
+ 1.234622 7 8 tcp 1540 ------- 0 7.0 0.0 33 125
+ 1.234622 7 8 tcp 1540 ------- 0 7.0 0.0 34 126
+ 1.234682 7 8 tcp 1540 ------- 0 7.0 0.0 35 127
+ 1.234682 7 8 tcp 1540 ------- 0 7.0 0.0 36 128
+ 1.234743 7 8 tcp 1540 ------- 0 7.0 0.0 37 129
+ 1.234743 7 8 tcp 1540 ------- 0 7.0 0.0 38 130
+ 1.234804 7 8 tcp 1540 ------- 0 7.0 0.0 39 131
+ 1.234865 7 8 tcp 1540 ------- 0 7.0 0.0 40 132
+ 1.234926 7 8 tcp 1540 ------- 0 7.0 0.0 41 133
+ 1.234986 7 8 tcp 1540 ------- 0 7.0 0.0 42 134
+ 1.235047 7 8 tcp 1540 ------- 0 7.0 0.0 43 135
+ 1.235108 7 8 tcp 1540 ------- 0 7.0 0.0 44 136
+ 1.235246 1 8 tcp 1540 ------- 0 1.0 5.0 33 137
- 1.235246 1 8 tcp 1540 ------- 0 1.0 5.0 33 137
+ 1.235246 1 8 tcp 1540 ------- 0 1.0 5.0 34 138
+ 1.235306 1 8 tcp 1540 ------- 0 1.0 5.0 35 139
+ 1.235306 1 8 tcp 1540 ------- 0 1.0 5.0 36 140
+ 1.235367 1 8 tcp 1540 ------- 0 1.0 5.0 37 141
+ 1.235367 1 8 tcp 1540 ------- 0 1.0 5.0 38 142
r 1.235452 8 1 ack 40 ------- 0 5.0 1.0 23 115
h 1.235452 1 8 tcp 1540 ------- 0 1.0 5.0 43 155
- 1.235814 7 8 tcp 1540 ------- 0 7.0 0.0 32 124
+ 1.236306 7 8 tcp 1540 ------- 0 7.0 0.0 45 143
r 1.236726 8 1 ack 40 ------- 0 5.0 1.0 24 116
h 1.236726 1 8 tcp 1540 ------- 0 1.0 5.0 44 156
- 1.237087 7 8 tcp 1540 ------- 0 7.0 0.0 33 125
+ 1.237575 5 8 ack 40 ------- 0 5.0 1.0 31 144
- 1.237575 5 8 ack 40 ------- 0 5.0 1.0 31 144
+ 1.237725 7 8 tcp 1540 ------- 0 7.0 0.0 46 145
r 1.23805 8 1 ack 40 ------- 0 5.0 1.0 25 117
h 1.23805 1 8 tcp 1540 ------- 0 1.0 5.0 45 157
- 1.238361 7 8 tcp 1540 ------- 0 7.0 0.0 34 126
+ 1.239015 5 8 ack 40 ------- 0 5.0 1.0 32 146
+ 1.23908 7 8 tcp 1540 ------- 0 7.0 0.0 47 147
r 1.239324 8 1 ack 40 ------- 0 5.0 1.0 26 118
h 1.239324 1 8 tcp 1540 ------- 0 1.0 5.0 46 158
- 1.23975 7 8 tcp 1540 ------- 0 7.0 0.0 35 127
+ 1.240337 0 8 ack 40 ------- 0 0.0 7.0 28 148
- 1.240337 0 8 ack 40 ------- 0 0.0 7.0 28 148
+ 1.240414 1 8 tcp 1540 ------- 0 1.0 5.0 39 149
r 1.240649 8 1 ack 40 ------- 0 5.0 1.0 27 119
h 1.240649 1 8 tcp 1540 ------- 0 1.0 5.0 47 159
- 1.241074 7 8 tcp 1540 ------- 0 7.0 0.0 36 128
+ 1.241671 0 8 ack 40 ------- 0 0.0 7.0 29 150
- 1.241671 0 8 ack 40 ------- 0 0.0 7.0 29 150
r 1.241902 8 1 ack 40 ------- 0 5.0 1.0 28 120
h 1.241902 1 8 tcp 1540 ------- 0 1.0 5.0 48 160
- 1.242514 7 8 tcp 1540 ------- 0 7.0 0.0 37 129
+ 1.242945 0 8 ack 40 ------- 0 0.0 7.0 30 151
- 1.242945 0 8 ack 40 ------- 0 0.0 7.0 30 151
+ 1.24301 1 8 tcp 1540 ------- 0 1.0 5.0 40 152
+ 1.24307 1 8 tcp 1540 ------- 0 1.0 5.0 41 153
r 1.243226 8 1 ack 40 ------- 0 5.0 1.0 29 121
h 1.243226 1 8 tcp 1540 ------- 0 1.0 5.0 49 161
- 1.243849 7 8 tcp 1540 ------- 0 7.0 0.0 38 130
+ 1.244178 1 8 tcp 1540 ------- 0 1.0 5.0 42 154
r 1.244551 8 1 ack 40 ------- 0 5.0 1.0 30 122
h 1.244551 1 8 tcp 1540 ------- 0 1.0 5.0 50 162
- 1.245183 7 8 tcp 1540 ------- 0 7.0 0.0 39 131
+ 1.245452 1 8 tcp 1540 ------- 0 1.0 5.0 43 155
r 1.245808 8 0 tcp 1540 ------- 0 7.0 0.0 31 123
h 1.245808 0 8 ack 40 ------- 0 0.0 7.0 31 163
- 1.246457 7 8 tcp 1540 ------- 0 7.0 0.0 40 132
+ 1.246726 1 8 tcp 1540 ------- 0 1.0 5.0 44 156
r 1.247082 8 0 tcp 1540 ------- 0 7.0 0.0 32 124
h 1.247082 0 8 ack 40 ------- 0 0.0 7.0 32 164
- 1.247782 7 8 tcp 1540 ------- 0 7.0 0.0 41 133
+ 1.24805 1 8 tcp 1540 ------- 0 1.0 5.0 45 157
r 1.248355 8 0 tcp 1540 ------- 0 7.0 0.0 33 125
h 1.248355 0 8 ack 40 ------- 0 0.0 7.0 33 165
- 1.249034 7 8 tcp 1540 ------- 0 7.0 0.0 42 134
+ 1.249324 1 8 tcp 1540 ------- 0 1.0 5.0 46 158
r 1.249744 8 0 tcp 1540 ------- 0 7.0 0.0 34 126
h 1.249744 0 8 ack 40 ------- 0 0.0 7.0 34 166
- 1.250287 7 8 tcp 1540 ------- 0 7.0 0.0 43 135
+ 1.250649 1 8 tcp 1540 ------- 0 1.0 5.0 47 159
r 1.251069 8 0 tcp 1540 ------- 0 7.0 0.0 35 127
h 1.251069 0 8 ack 40 ------- 0 0.0 7.0 35 167
r 1.251198 8 7 ack 40 ------- 0 0.0 7.0 28 148
h 1.251198 7 8 tcp 1540 ------- 0 7.0 0.0 48 168
- 1.251561 7 8 tcp 1540 ------- 0 7.0 0.0 44 136
+ 1.251902 1 8 tcp 1540 ------- 0 1.0 5.0 48 160
r 1.252509 8 0 tcp 1540 ------- 0 7.0 0.0 36 128
h 1.252509 0 8 ack 40 ------- 0 0.0 7.0 36 169
r 1.252586 8 7 ack 40 ------- 0 0.0 7.0 29 150
h 1.252586 7 8 tcp 1540 ------- 0 7.0 0.0 49 170
- 1.252814 7 8 tcp 1540 ------- 0 7.0 0.0 45 143
+ 1.253226 1 8 tcp 1540 ------- 0 1.0 5.0 49 161
r 1.253843 8 0 tcp 1540 ------- 0 7.0 0.0 37 129
h 1.253843 0 8 ack 40 ------- 0 0.0 7.0 37 171
r 1.253921 8 7 ack 40 ------- 0 0.0 7.0 30 151
h 1.253921 7 8 tcp 1540 ------- 0 7.0 0.0 50 172
- 1.254066 7 8 tcp 1540 ------- 0 7.0 0.0 46 145
+ 1.254551 1 8 tcp 1540 ------- 0 1.0 5.0 50 162
r 1.255178 8 0 tcp 1540 ------- 0 7.0 0.0 38 130
h 1.255178 0 8 ack 40 ------- 0 0.0 7.0 38 173
- 1.255319 7 8 tcp 1540 ------- 0 7.0 0.0 47 147
+ 1.255808 0 8 ack 40 ------- 0 0.0 7.0 31 163
- 1.255808 0 8 ack 40 ------- 0 0.0 7.0 31 163
r 1.256451 8 0 tcp 1540 ------- 0 7.0 0.0 39 131
h 1.256451 0 8 ack 40 ------- 0 0.0 7.0 39 174
+ 1.257082 0 8 ack 40 ------- 0 0.0 7.0 32 164
- 1.257082 0 8 ack 40 ------- 0 0.0 7.0 32 164
r 1.257776 8 0 tcp 1540 ------- 0 7.0 0.0 40 132
h 1.257776 0 8 ack 40 ------- 0 0.0 7.0 40 175
+ 1.258355 0 8 ack 40 ------- 0 0.0 7.0 33 165
- 1.258355 0 8 ack 40 ------- 0 0.0 7.0 33 165
r 1.259029 8 0 tcp 1540 ------- 0 7.0 0.0 41 133
h 1.259029 0 8 ack 40 ------- 0 0.0 7.0 41 176
+ 1.259744 0 8 ack 40 ------- 0 0.0 7.0 34 166
- 1.259744 0 8 ack 40 ------- 0 0.0 7.0 34 166
r 1.260282 8 0 tcp 1540 ------- 0 7.0 0.0 42 134
h 1.260282 0 8 ack 40 ------- 0 0.0 7.0 42 177
- 1.26041 5 8 ack 40 ------- 0 5.0 1.0 32 146
+ 1.261069 0 8 ack 40 ------- 0 0.0 7.0 35 167
- 1.261069 0 8 ack 40 ------- 0 0.0 7.0 35 167
+ 1.261198 7 8 tcp 1540 ------- 0 7.0 0.0 48 168
- 1.261198 7 8 tcp 1540 ------- 0 7.0 0.0 48 168