V -t * -v 1.0a5 -a 0
A -t * -n 1 -p 0 -o 0xffffffff -c 31 -a 1
A -t * -h 1 -m 2147483647 -s 0
n -t * -a 0 -s 0 -S UP -v circle -c black -i black
n -t * -a 1 -s 1 -S UP -v circle -c black -i black
n -t * -a 2 -s 2 -S UP -v circle -c black -i black
n -t * -a 3 -s 3 -S UP -v circle -c black -i black
l -t * -s 0 -d 2 -S UP -r 300000000 -D 0.01 -c black -o right-down
l -t * -s 1 -d 2 -S UP -r 300000000 -D 0.01 -c black -o right-up
l -t * -s 2 -d 3 -S UP -r 10000000 -D 0.01 -c black -o right
+ -t 1 -s 0 -d 2 -p tcp -e 40 -c 0 -i 0 -a 0 -x {0.0 3.0 0 ------- null}
- -t 1 -s 0 -d 2 -p tcp -e 40 -c 0 -i 0 -a 0 -x {0.0 3.0 0 ------- null}
h -t 1 -s 0 -d 2 -p tcp -e 40 -c 0 -i 0 -a 0 -x {0.0 3.0 -1 ------- null}
+ -t 1 -s 1 -d 2 -p tcp -e 40 -c 0 -i 1 -a 0 -x {1.0 3.1 0 ------- null}
- -t 1 -s 1 -d 2 -p tcp -e 40 -c 0 -i 1 -a 0 -x {1.0 3.1 0 ------- null}
h -t 1 -s 1 -d 2 -p tcp -e 40 -c 0 -i 1 -a 0 -x {1.0 3.1 -1 ------- null}
r -t 1.01000106666667 -s 0 -d 2 -p tcp -e 40 -c 0 -i 0 -a 0 -x {0.0 3.0 0 ------- null}
+ -t 1.01000106666667 -s 2 -d 3 -p tcp -e 40 -c 0 -i 0 -a 0 -x {0.0 3.0 0 ------- null}
- -t 1.01000106666667 -s 2 -d 3 -p tcp -e 40 -c 0 -i 0 -a 0 -x {0.0 3.0 0 ------- null}
h -t 1.01000106666667 -s 2 -d 3 -p tcp -e 40 -c 0 -i 0 -a 0 -x {0.0 3.0 -1 ------- null}
r -t 1.01000106666667 -s 1 -d 2 -p tcp -e 40 -c 0 -i 1 -a 0 -x {1.0 3.1 0 ------- null}
+ -t 1.01000106666667 -s 2 -d 3 -p tcp -e 40 -c 0 -i 1 -a 0 -x {1.0 3.1 0 ------- null}
- -t 1.01003306666667 -s 2 -d 3 -p tcp -e 40 -c 0 -i 1 -a 0 -x {1.0 3.1 0 ------- null}
h -t 1.01003306666667 -s 2 -d 3 -p tcp -e 40 -c 0 -i 1 -a 0 -x {1.0 3.1 -1 ------- null}
r -t 1.02003306666667 -s 2 -d 3 -p tcp -e 40 -c 0 -i 0 -a 0 -x {0.0 3.0 0 ------- null}
+ -t 1.02003306666667 -s 3 -d 2 -p ack -e 40 -c 0 -i 2 -a 0 -x {3.0 0.0 0 ------- null}
- -t 1.02003306666667 -s 3 -d 2 -p ack -e 40 -c 0 -i 2 -a 0 -x {3.0 0.0 0 ------- null}
h -t 1.02003306666667 -s 3 -d 2 -p ack -e 40 -c 0 -i 2 -a 0 -x {3.0 0.0 -1 ------- null}
r -t 1.02006506666667 -s 2 -d 3 -p tcp -e 40 -c 0 -i 1 -a 0 -x {1.0 3.1 0 ------- null}
+ -t 1.02006506666667 -s 3 -d 2 -p ack -e 40 -c 0 -i 3 -a 0 -x {3.1 1.0 0 ------- null}
- -t 1.02006506666667 -s 3 -d 2 -p ack -e 40 -c 0 -i 3 -a 0 -x {3.1 1.0 0 ------- null}
h -t 1.02006506666667 -s 3 -d 2 -p ack -e 40 -c 0 -i 3 -a 0 -x {3.1 1.0 -1 ------- null}
r -t 1.03006506666667 -s 3 -d 2 -p ack -e 40 -c 0 -i 2 -a 0 -x {3.0 0.0 0 ------- null}
+ -t 1.03006506666667 -s 2 -d 0 -p ack -e 40 -c 0 -i 2 -a 0 -x {3.0 0.0 0 ------- null}
- -t 1.03006506666667 -s 2 -d 0 -p ack -e 40 -c 0 -i 2 -a 0 -x {3.0 0.0 0 ------- null}
h -t 1.03006506666667 -s 2 -d 0 -p ack -e 40 -c 0 -i 2 -a 0 -x {3.0 0.0 -1 ------- null}
r -t 1.03009706666667 -s 3 -d 2 -p ack -e 40 -c 0 -i 3 -a 0 -x {3.1 1.0 0 ------- null}
+ -t 1.03009706666667 -s 2 -d 1 -p ack -e 40 -c 0 -i 3 -a 0 -x {3.1 1.0 0 ------- null}
- -t 1.03009706666667 -s 2 -d 1 -p ack -e 40 -c 0 -i 3 -a 0 -x {3.1 1.0 0 ------- null}
h -t 1.03009706666667 -s 2 -d 1 -p ack -e 40 -c 0 -i 3 -a 0 -x {3.1 1.0 -1 ------- null}
r -t 1.04006613333333 -s 2 -d 0 -p ack -e 40 -c 0 -i 2 -a 0 -x {3.0 0.0 0 ------- null}
+ -t 1.04006613333333 -s 0 -d 2 -p tcp -e 1580 -c 0 -i 4 -a 0 -x {0.0 3.0 1 ------- null}
- -t 1.04006613333333 -s 0 -d 2 -p tcp -e 1580 -c 0 -i 4 -a 0 -x {0.0 3.0 1 ------- null}
h -t 1.04006613333333 -s 0 -d 2 -p tcp -e 1580 -c 0 -i 4 -a 0 -x {0.0 3.0 -1 ------- null}
+ -t 1.04006613333333 -s 0 -d 2 -p tcp -e 1580 -c 0 -i 5 -a 0 -x {0.0 3.0 2 ------- null}
r -t 1.04009813333333 -s 2 -d 1 -p ack -e 40 -c 0 -i 3 -a 0 -x {3.1 1.0 0 ------- null}
+ -t 1.04009813333333 -s 1 -d 2 -p tcp -e 1580 -c 0 -i 6 -a 0 -x {1.0 3.1 1 ------- null}
- -t 1.04009813333333 -s 1 -d 2 -p tcp -e 1580 -c 0 -i 6 -a 0 -x {1.0 3.1 1 ------- null}
h -t 1.04009813333333 -s 1 -d 2 -p tcp -e 1580 -c 0 -i 6 -a 0 -x {1.0 3.1 -1 ------- null}
+ -t 1.04009813333333 -s 1 -d 2 -p tcp -e 1580 -c 0 -i 7 -a 0 -x {1.0 3.1 2 ------- null}
- -t 1.04010826666667 -s 0 -d 2 -p tcp -e 1580 -c 0 -i 5 -a 0 -x {0.0 3.0 2 ------- null}
h -t 1.04010826666667 -s 0 -d 2 -p tcp -e 1580 -c 0 -i 5 -a 0 -x {0.0 3.0 -1 ------- null}
- -t 1.04014026666667 -s 1 -d 2 -p tcp -e 1580 -c 0 -i 7 -a 0 -x {1.0 3.1 2 ------- null}
h -t 1.04014026666667 -s 1 -d 2 -p tcp -e 1580 -c 0 -i 7 -a 0 -x {1.0 3.1 -1 ------- null}
r -t 1.05010826666667 -s 0 -d 2 -p tcp -e 1580 -c 0 -i 4 -a 0 -x {0.0 3.0 1 ------- null}
+ -t 1.05010826666667 -s 2 -d 3 -p tcp -e 1580 -c 0 -i 4 -a 0 -x {0.0 3.0 1 ------- null}
- -t 1.05010826666667 -s 2 -d 3 -p tcp -e 1580 -c 0 -i 4 -a 0 -x {0.0 3.0 1 ------- null}
h -t 1.05010826666667 -s 2 -d 3 -p tcp -e 1580 -c 0 -i 4 -a 0 -x {0.0 3.0 -1 ------- null}
r -t 1.05014026666667 -s 1 -d 2 -p tcp -e 1580 -c 0 -i 6 -a 0 -x {1.0 3.1 1 ------- null}
+ -t 1.05014026666667 -s 2 -d 3 -p tcp -e 1580 -c 0 -i 6 -a 0 -x {1.0 3.1 1 ------- null}
r -t 1.0501504 -s 0 -d 2 -p tcp -e 1580 -c 0 -i 5 -a 0 -x {0.0 3.0 2 ------- null}
+ -t 1.0501504 -s 2 -d 3 -p tcp -e 1580 -c 0 -i 5 -a 0 -x {0.0 3.0 2 ------- null}
r -t 1.0501824 -s 1 -d 2 -p tcp -e 1580 -c 0 -i 7 -a 0 -x {1.0 3.1 2 ------- null}
+ -t 1.0501824 -s 2 -d 3 -p tcp -e 1580 -c 0 -i 7 -a 0 -x {1.0 3.1 2 ------- null}
- -t 1.05137226666667 -s 2 -d 3 -p tcp -e 1580 -c 0 -i 6 -a 0 -x {1.0 3.1 1 ------- null}
h -t 1.05137226666667 -s 2 -d 3 -p tcp -e 1580 -c 0 -i 6 -a 0 -x {1.0 3.1 -1 ------- null}
- -t 1.05263626666667 -s 2 -d 3 -p tcp -e 1580 -c 0 -i 5 -a 0 -x {0.0 3.0 2 ------- null}
h -t 1.05263626666667 -s 2 -d 3 -p tcp -e 1580 -c 0 -i 5 -a 0 -x {0.0 3.0 -1 ------- null}
- -t 1.05390026666667 -s 2 -d 3 -p tcp -e 1580 -c 0 -i 7 -a 0 -x {1.0 3.1 2 ------- null}
h -t 1.05390026666667 -s 2 -d 3 -p tcp -e 1580 -c 0 -i 7 -a 0 -x {1.0 3.1 -1 ------- null}
r -t 1.06137226666667 -s 2 -d 3 -p tcp -e 1580 -c 0 -i 4 -a 0 -x {0.0 3.0 1 ------- null}
+ -t 1.06137226666667 -s 3 -d 2 -p ack -e 40 -c 0 -i 8 -a 0 -x {3.0 0.0 1 ------- null}
- -t 1.06137226666667 -s 3 -d 2 -p ack -e 40 -c 0 -i 8 -a 0 -x {3.0 0.0 1 ------- null}
h -t 1.06137226666667 -s 3 -d 2 -p ack -e 40 -c 0 -i 8 -a 0 -x {3.0 0.0 -1 ------- null}
r -t 1.06263626666667 -s 2 -d 3 -p tcp -e 1580 -c 0 -i 6 -a 0 -x {1.0 3.1 1 ------- null}
+ -t 1.06263626666667 -s 3 -d 2 -p ack -e 40 -c 0 -i 9 -a 0 -x {3.1 1.0 1 ------- null}
- -t 1.06263626666667 -s 3 -d 2 -p ack -e 40 -c 0 -i 9 -a 0 -x {3.1 1.0 1 ------- null}
h -t 1.06263626666667 -s 3 -d 2 -p ack -e 40 -c 0 -i 9 -a 0 -x {3.1 1.0 -1 ------- null}
r -t 1.06390026666667 -s 2 -d 3 -p tcp -e 1580 -c 0 -i 5 -a 0 -x {0.0 3.0 2 ------- null}
+ -t 1.06390026666667 -s 3 -d 2 -p ack -e 40 -c 0 -i 10 -a 0 -x {3.0 0.0 2 ------- null}
- -t 1.06390026666667 -s 3 -d 2 -p ack -e 40 -c 0 -i 10 -a 0 -x {3.0 0.0 2 ------- null}
h -t 1.06390026666667 -s 3 -d 2 -p ack -e 40 -c 0 -i 10 -a 0 -x {3.0 0.0 -1 ------- null}
r -t 1.06516426666667 -s 2 -d 3 -p tcp -e 1580 -c 0 -i 7 -a 0 -x {1.0 3.1 2 ------- null}
+ -t 1.06516426666667 -s 3 -d 2 -p ack -e 40 -c 0 -i 11 -a 0 -x {3.1 1.0 2 ------- null}
- -t 1.06516426666667 -s 3 -d 2 -p ack -e 40 -c 0 -i 11 -a 0 -x {3.1 1.0 2 ------- null}
h -t 1.06516426666667 -s 3 -d 2 -p ack -e 40 -c 0 -i 11 -a 0 -x {3.1 1.0 -1 ------- null}
r -t 1.07140426666667 -s 3 -d 2 -p ack -e 40 -c 0 -i 8 -a 0 -x {3.0 0.0 1 ------- null}
+ -t 1.07140426666667 -s 2 -d 0 -p ack -e 40 -c 0 -i 8 -a 0 -x {3.0 0.0 1 ------- null}
- -t 1.07140426666667 -s 2 -d 0 -p ack -e 40 -c 0 -i 8 -a 0 -x {3.0 0.0 1 ------- null}
h -t 1.07140426666667 -s 2 -d 0 -p ack -e 40 -c 0 -i 8 -a 0 -x {3.0 0.0 -1 ------- null}
r -t 1.07266826666667 -s 3 -d 2 -p ack -e 40 -c 0 -i 9 -a 0 -x {3.1 1.0 1 ------- null}
+ -t 1.07266826666667 -s 2 -d 1 -p ack -e 40 -c 0 -i 9 -a 0 -x {3.1 1.0 1 ------- null}
- -t 1.07266826666667 -s 2 -d 1 -p ack -e 40 -c 0 -i 9 -a 0 -x {3.1 1.0 1 ------- null}
h -t 1.07266826666667 -s 2 -d 1 -p ack -e 40 -c 0 -i 9 -a 0 -x {3.1 1.0 -1 ------- null}
r -t 1.07393226666667 -s 3 -d 2 -p ack -e 40 -c 0 -i 10 -a 0 -x {3.0 0.0 2 ------- null}
+ -t 1.07393226666667 -s 2 -d 0 -p ack -e 40 -c 0 -i 10 -a 0 -x {3.0 0.0 2 ------- null}
- -t 1.07393226666667 -s 2 -d 0 -p ack -e 40 -c 0 -i 10 -a 0 -x {3.0 0.0 2 ------- null}
h -t 1.07393226666667 -s 2 -d 0 -p ack -e 40 -c 0 -i 10 -a 0 -x {3.0 0.0 -1 ------- null}
r -t 1.07519626666667 -s 3 -d 2 -p ack -e 40 -c 0 -i 11 -a 0 -x {3.1 1.0 2 ------- null}
+ -t 1.07519626666667 -s 2 -d 1 -p ack -e 40 -c 0 -i 11 -a 0 -x {3.1 1.0 2 ------- null}
- -t 1.07519626666667 -s 2 -d 1 -p ack -e 40 -c 0 -i 11 -a 0 -x {3.1 1.0 2 ------- null}
h -t 1.07519626666667 -s 2 -d 1 -p ack -e 40 -c 0 -i 11 -a 0 -x {3.1 1.0 -1 ------- null}
r -t 1.08140533333333 -s 2 -d 0 -p ack -e 40 -c 0 -i 8 -a 0 -x {3.0 0.0 1 ------- null}
+ -t 1.08140533333333 -s 0 -d 2 -p tcp -e 1580 -c 0 -i 12 -a 0 -x {0.0 3.0 3 ------- null}
- -t 1.08140533333333 -s 0 -d 2 -p tcp -e 1580 -c 0 -i 12 -a 0 -x {0.0 3.0 3 ------- null}
h -t 1.08140533333333 -s 0 -d 2 -p tcp -e 1580 -c 0 -i 12 -a 0 -x {0.0 3.0 -1 ------- null}
+ -t 1.08140533333333 -s 0 -d 2 -p tcp -e 1580 -c 0 -i 13 -a 0 -x {0.0 3.0 4 ------- null}
- -t 1.08144746666667 -s 0 -d 2 -p tcp -e 1580 -c 0 -i 13 -a 0 -x {0.0 3.0 4 ------- null}
h -t 1.08144746666667 -s 0 -d 2 -p tcp -e 1580 -c 0 -i 13 -a 0 -x {0.0 3.0 -1 ------- null}
r -t 1.08266933333333 -s 2 -d 1 -p ack -e 40 -c 0 -i 9 -a 0 -x {3.1 1.0 1 ------- null}
+ -t 1.08266933333333 -s 1 -d 2 -p tcp -e 1580 -c 0 -i 14 -a 0 -x {1.0 3.1 3 ------- null}
- -t 1.08266933333333 -s 1 -d 2 -p tcp -e 1580 -c 0 -i 14 -a 0 -x {1.0 3.1 3 ------- null}
h -t 1.08266933333333 -s 1 -d 2 -p tcp -e 1580 -c 0 -i 14 -a 0 -x {1.0 3.1 -1 ------- null}
+ -t 1.08266933333333 -s 1 -d 2 -p tcp -e 1580 -c 0 -i 15 -a 0 -x {1.0 3.1 4 ------- null}
- -t 1.08271146666667 -s 1 -d 2 -p tcp -e 1580 -c 0 -i 15 -a 0 -x {1.0 3.1 4 ------- null}
h -t 1.08271146666667 -s 1 -d 2 -p tcp -e 1580 -c 0 -i 15 -a 0 -x {1.0 3.1 -1 ------- null}
r -t 1.08393333333333 -s 2 -d 0 -p ack -e 40 -c 0 -i 10 -a 0 -x {3.0 0.0 2 ------- null}
+ -t 1.08393333333333 -s 0 -d 2 -p tcp -e 1580 -c 0 -i 16 -a 0 -x {0.0 3.0 5 ------- null}
- -t 1.08393333333333 -s 0 -d 2 -p tcp -e 1580 -c 0 -i 16 -a 0 -x {0.0 3.0 5 ------- null}
h -t 1.08393333333333 -s 0 -d 2 -p tcp -e 1580 -c 0 -i 16 -a 0 -x {0.0 3.0 -1 ------- null}
+ -t 1.08393333333333 -s 0 -d 2 -p tcp -e 1580 -c 0 -i 17 -a 0 -x {0.0 3.0 6 ------- null}
- -t 1.08397546666667 -s 0 -d 2 -p tcp -e 1580 -c 0 -i 17 -a 0 -x {0.0 3.0 6 ------- null}
h -t 1.08397546666667 -s 0 -d 2 -p tcp -e 1580 -c 0 -i 17 -a 0 -x {0.0 3.0 -1 ------- null}
r -t 1.08519733333333 -s 2 -d 1 -p ack -e 40 -c 0 -i 11 -a 0 -x {3.1 1.0 2 ------- null}
+ -t 1.08519733333333 -s 1 -d 2 -p tcp -e 1580 -c 0 -i 18 -a 0 -x {1.0 3.1 5 ------- null}
- -t 1.08519733333333 -s 1 -d 2 -p tcp -e 1580 -c 0 -i 18 -a 0 -x {1.0 3.1 5 ------- null}
h -t 1.08519733333333 -s 1 -d 2 -p tcp -e 1580 -c 0 -i 18 -a 0 -x {1.0 3.1 -1 ------- null}
+ -t 1.08519733333333 -s 1 -d 2 -p tcp -e 1580 -c 0 -i 19 -a 0 -x {1.0 3.1 6 ------- null}
- -t 1.08523946666667 -s 1 -d 2 -p tcp -e 1580 -c 0 -i 19 -a 0 -x {1.0 3.1 6 ------- null}
h -t 1.08523946666667 -s 1 -d 2 -p tcp -e 1580 -c 0 -i 19 -a 0 -x {1.0 3.1 -1 ------- null}
r -t 1.09144746666667 -s 0 -d 2 -p tcp -e 1580 -c 0 -i 12 -a 0 -x {0.0 3.0 3 ------- null}
+ -t 1.09144746666667 -s 2 -d 3 -p tcp -e 1580 -c 0 -i 12 -a 0 -x {0.0 3.0 3 ------- null}
- -t 1.09144746666667 -s 2 -d 3 -p tcp -e 1580 -c 0 -i 12 -a 0 -x {0.0 3.0 3 ------- null}
h -t 1.09144746666667 -s 2 -d 3 -p tcp -e 1580 -c 0 -i 12 -a 0 -x {0.0 3.0 -1 ------- null}
r -t 1.0914896 -s 0 -d 2 -p tcp -e 1580 -c 0 -i 13 -a 0 -x {0.0 3.0 4 ------- null}
+ -t 1.0914896 -s 2 -d 3 -p tcp -e 1580 -c 0 -i 13 -a 0 -x {0.0 3.0 4 ------- null}
r -t 1.09271146666667 -s 1 -d 2 -p tcp -e 1580 -c 0 -i 14 -a 0 -x {1.0 3.1 3 ------- null}
+ -t 1.09271146666667 -s 2 -d 3 -p tcp -e 1580 -c 0 -i 14 -a 0 -x {1.0 3.1 3 ------- null}
- -t 1.09271146666667 -s 2 -d 3 -p tcp -e 1580 -c 0 -i 13 -a 0 -x {0.0 3.0 4 ------- null}
h -t 1.09271146666667 -s 2 -d 3 -p tcp -e 1580 -c 0 -i 13 -a 0 -x {0.0 3.0 -1 ------- null}
r -t 1.0927536 -s 1 -d 2 -p tcp -e 1580 -c 0 -i 15 -a 0 -x {1.0 3.1 4 ------- null}
+ -t 1.0927536 -s 2 -d 3 -p tcp -e 1580 -c 0 -i 15 -a 0 -x {1.0 3.1 4 ------- null}
r -t 1.09397546666667 -s 0 -d 2 -p tcp -e 1580 -c 0 -i 16 -a 0 -x {0.0 3.0 5 ------- null}
+ -t 1.09397546666667 -s 2 -d 3 -p tcp -e 1580 -c 0 -i 16 -a 0 -x {0.0 3.0 5 ------- null}
- -t 1.09397546666667 -s 2 -d 3 -p tcp -e 1580 -c 0 -i 14 -a 0 -x {1.0 3.1 3 ------- null}
h -t 1.09397546666667 -s 2 -d 3 -p tcp -e 1580 -c 0 -i 14 -a 0 -x {1.0 3.1 -1 ------- null}
r -t 1.0940176 -s 0 -d 2 -p tcp -e 1580 -c 0 -i 17 -a 0 -x {0.0 3.0 6 ------- null}
+ -t 1.0940176 -s 2 -d 3 -p tcp -e 1580 -c 0 -i 17 -a 0 -x {0.0 3.0 6 ------- null}
r -t 1.09523946666667 -s 1 -d 2 -p tcp -e 1580 -c 0 -i 18 -a 0 -x {1.0 3.1 5 ------- null}
+ -t 1.09523946666667 -s 2 -d 3 -p tcp -e 1580 -c 0 -i 18 -a 0 -x {1.0 3.1 5 ------- null}
- -t 1.09523946666667 -s 2 -d 3 -p tcp -e 1580 -c 0 -i 15 -a 0 -x {1.0 3.1 4 ------- null}
h -t 1.09523946666667 -s 2 -d 3 -p tcp -e 1580 -c 0 -i 15 -a 0 -x {1.0 3.1 -1 ------- null}
r -t 1.0952816 -s 1 -d 2 -p tcp -e 1580 -c 0 -i 19 -a 0 -x {1.0 3.1 6 ------- null}
+ -t 1.0952816 -s 2 -d 3 -p tcp -e 1580 -c 0 -i 19 -a 0 -x {1.0 3.1 6 ------- null}
- -t 1.09650346666667 -s 2 -d 3 -p tcp -e 1580 -c 0 -i 16 -a 0 -x {0.0 3.0 5 ------- null}
h -t 1.09650346666667 -s 2 -d 3 -p tcp -e 1580 -c 0 -i 16 -a 0 -x {0.0 3.0 -1 ------- null}
- -t 1.09776746666667 -s 2 -d 3 -p tcp -e 1580 -c 0 -i 17 -a 0 -x {0.0 3.0 6 ------- null}
h -t 1.09776746666667 -s 2 -d 3 -p tcp -e 1580 -c 0 -i 17 -a 0 -x {0.0 3.0 -1 ------- null}
- -t 1.09903146666667 -s 2 -d 3 -p tcp -e 1580 -c 0 -i 18 -a 0 -x {1.0 3.1 5 ------- null}
h -t 1.09903146666667 -s 2 -d 3 -p tcp -e 1580 -c 0 -i 18 -a 0 -x {1.0 3.1 -1 ------- null}
- -t 1.10029546666667 -s 2 -d 3 -p tcp -e 1580 -c 0 -i 19 -a 0 -x {1.0 3.1 6 ------- null}
h -t 1.10029546666667 -s 2 -d 3 -p tcp -e 1580 -c 0 -i 19 -a 0 -x {1.0 3.1 -1 ------- null}
r -t 1.10271146666667 -s 2 -d 3 -p tcp -e 1580 -c 0 -i 12 -a 0 -x {0.0 3.0 3 ------- null}
+ -t 1.10271146666667 -s 3 -d 2 -p ack -e 40 -c 0 -i 20 -a 0 -x {3.0 0.0 3 ------- null}
- -t 1.10271146666667 -s 3 -d 2 -p ack -e 40 -c 0 -i 20 -a 0 -x {3.0 0.0 3 ------- null}
h -t 1.10271146666667 -s 3 -d 2 -p ack -e 40 -c 0 -i 20 -a 0 -x {3.0 0.0 -1 ------- null}
r -t 1.10397546666667 -s 2 -d 3 -p tcp -e 1580 -c 0 -i 13 -a 0 -x {0.0 3.0 4 ------- null}
+ -t 1.10397546666667 -s 3 -d 2 -p ack -e 40 -c 0 -i 21 -a 0 -x {3.0 0.0 4 ------- null}
- -t 1.10397546666667 -s 3 -d 2 -p ack -e 40 -c 0 -i 21 -a 0 -x {3.0 0.0 4 ------- null}
h -t 1.10397546666667 -s 3 -d 2 -p ack -e 40 -c 0 -i 21 -a 0 -x {3.0 0.0 -1 ------- null}
r -t 1.10523946666667 -s 2 -d 3 -p tcp -e 1580 -c 0 -i 14 -a 0 -x {1.0 3.1 3 ------- null}
+ -t 1.10523946666667 -s 3 -d 2 -p ack -e 40 -c 0 -i 22 -a 0 -x {3.1 1.0 3 ------- null}
- -t 1.10523946666667 -s 3 -d 2 -p ack -e 40 -c 0 -i 22 -a 0 -x {3.1 1.0 3 ------- null}
h -t 1.10523946666667 -s 3 -d 2 -p ack -e 40 -c 0 -i 22 -a 0 -x {3.1 1.0 -1 ------- null}
r -t 1.10650346666667 -s 2 -d 3 -p tcp -e 1580 -c 0 -i 15 -a 0 -x {1.0 3.1 4 ------- null}
+ -t 1.10650346666667 -s 3 -d 2 -p ack -e 40 -c 0 -i 23 -a 0 -x {3.1 1.0 4 ------- null}
- -t 1.10650346666667 -s 3 -d 2 -p ack -e 40 -c 0 -i 23 -a 0 -x {3.1 1.0 4 ------- null}
h -t 1.10650346666667 -s 3 -d 2 -p ack -e 40 -c 0 -i 23 -a 0 -x {3.1 1.0 -1 ------- null}
r -t 1.10776746666667 -s 2 -d 3 -p tcp -e 1580 -c 0 -i 16 -a 0 -x {0.0 3.0 5 ------- null}
+ -t 1.10776746666667 -s 3 -d 2 -p ack -e 40 -c 0 -i 24 -a 0 -x {3.0 0.0 5 ------- null}
- -t 1.10776746666667 -s 3 -d 2 -p ack -e 40 -c 0 -i 24 -a 0 -x {3.0 0.0 5 ------- null}
h -t 1.10776746666667 -s 3 -d 2 -p ack -e 40 -c 0 -i 24 -a 0 -x {3.0 0.0 -1 ------- null}
r -t 1.10903146666667 -s 2 -d 3 -p tcp -e 1580 -c 0 -i 17 -a 0 -x {0.0 3.0 6 ------- null}
+ -t 1.10903146666667 -s 3 -d 2 -p ack -e 40 -c 0 -i 25 -a 0 -x {3.0 0.0 6 ------- null}
- -t 1.10903146666667 -s 3 -d 2 -p ack -e 40 -c 0 -i 25 -a 0 -x {3.0 0.0 6 ------- null}
h -t 1.10903146666667 -s 3 -d 2 -p ack -e 40 -c 0 -i 25 -a 0 -x {3.0 0.0 -1 ------- null}
r -t 1.11029546666667 -s 2 -d 3 -p tcp -e 1580 -c 0 -i 18 -a 0 -x {1.0 3.1 5 ------- null}
+ -t 1.11029546666667 -s 3 -d 2 -p ack -e 40 -c 0 -i 26 -a 0 -x {3.1 1.0 5 ------- null}
- -t 1.11029546666667 -s 3 -d 2 -p ack -e 40 -c 0 -i 26 -a 0 -x {3.1 1.0 5 ------- null}
h -t 1.11029546666667 -s 3 -d 2 -p ack -e 40 -c 0 -i 26 -a 0 -x {3.1 1.0 -1 ------- null}
r -t 1.11155946666667 -s 2 -d 3 -p tcp -e 1580 -c 0 -i 19 -a 0 -x {1.0 3.1 6 ------- null}
+ -t 1.11155946666667 -s 3 -d 2 -p ack -e 40 -c 0 -i 27 -a 0 -x {3.1 1.0 6 ------- null}
- -t 1.11155946666667 -s 3 -d 2 -p ack -e 40 -c 0 -i 27 -a 0 -x {3.1 1.0 6 ------- null}
h -t 1.11155946666667 -s 3 -d 2 -p ack -e 40 -c 0 -i 27 -a 0 -x {3.1 1.0 -1 ------- null}
r -t 1.11274346666667 -s 3 -d 2 -p ack -e 40 -c 0 -i 20 -a 0 -x {3.0 0.0 3 ------- null}
+ -t 1.11274346666667 -s 2 -d 0 -p ack -e 40 -c 0 -i 20 -a 0 -x {3.0 0.0 3 ------- null}
- -t 1.11274346666667 -s 2 -d 0 -p ack -e 40 -c 0 -i 20 -a 0 -x {3.0 0.0 3 ------- null}
h -t 1.11274346666667 -s 2 -d 0 -p ack -e 40 -c 0 -i 20 -a 0 -x {3.0 0.0 -1 ------- null}
r -t 1.11400746666667 -s 3 -d 2 -p ack -e 40 -c 0 -i 21 -a 0 -x {3.0 0.0 4 ------- null}
+ -t 1.11400746666667 -s 2 -d 0 -p ack -e 40 -c 0 -i 21 -a 0 -x {3.0 0.0 4 ------- null}
- -t 1.11400746666667 -s 2 -d 0 -p ack -e 40 -c 0 -i 21 -a 0 -x {3.0 0.0 4 ------- null}
h -t 1.11400746666667 -s 2 -d 0 -p ack -e 40 -c 0 -i 21 -a 0 -x {3.0 0.0 -1 ------- null}
r -t 1.11527146666667 -s 3 -d 2 -p ack -e 40 -c 0 -i 22 -a 0 -x {3.1 1.0 3 ------- null}
+ -t 1.11527146666667 -s 2 -d 1 -p ack -e 40 -c 0 -i 22 -a 0 -x {3.1 1.0 3 ------- null}
- -t 1.11527146666667 -s 2 -d 1 -p ack -e 40 -c 0 -i 22 -a 0 -x {3.1 1.0 3 ------- null}
h -t 1.11527146666667 -s 2 -d 1 -p ack -e 40 -c 0 -i 22 -a 0 -x {3.1 1.0 -1 ------- null}
r -t 1.11653546666667 -s 3 -d 2 -p ack -e 40 -c 0 -i 23 -a 0 -x {3.1 1.0 4 ------- null}
+ -t 1.11653546666667 -s 2 -d 1 -p ack -e 40 -c 0 -i 23 -a 0 -x {3.1 1.0 4 ------- null}
- -t 1.11653546666667 -s 2 -d 1 -p ack -e 40 -c 0 -i 23 -a 0 -x {3.1 1.0 4 ------- null}
h -t 1.11653546666667 -s 2 -d 1 -p ack -e 40 -c 0 -i 23 -a 0 -x {3.1 1.0 -1 ------- null}
r -t 1.11779946666667 -s 3 -d 2 -p ack -e 40 -c 0 -i 24 -a 0 -x {3.0 0.0 5 ------- null}
+ -t 1.11779946666667 -s 2 -d 0 -p ack -e 40 -c 0 -i 24 -a 0 -x {3.0 0.0 5 ------- null}
- -t 1.11779946666667 -s 2 -d 0 -p ack -e 40 -c 0 -i 24 -a 0 -x {3.0 0.0 5 ------- null}
h -t 1.11779946666667 -s 2 -d 0 -p ack -e 40 -c 0 -i 24 -a 0 -x {3.0 0.0 -1 ------- null}
r -t 1.11906346666667 -s 3 -d 2 -p ack -e 40 -c 0 -i 25 -a 0 -x {3.0 0.0 6 ------- null}
+ -t 1.11906346666667 -s 2 -d 0 -p ack -e 40 -c 0 -i 25 -a 0 -x {3.0 0.0 6 ------- null}
- -t 1.11906346666667 -s 2 -d 0 -p ack -e 40 -c 0 -i 25 -a 0 -x {3.0 0.0 6 ------- null}
h -t 1.11906346666667 -s 2 -d 0 -p ack -e 40 -c 0 -i 25 -a 0 -x {3.0 0.0 -1 ------- null}
r -t 1.12032746666667 -s 3 -d 2 -p ack -e 40 -c 0 -i 26 -a 0 -x {3.1 1.0 5 ------- null}
+ -t 1.12032746666667 -s 2 -d 1 -p ack -e 40 -c 0 -i 26 -a 0 -x {3.1 1.0 5 ------- null}
- -t 1.12032746666667 -s 2 -d 1 -p ack -e 40 -c 0 -i 26 -a 0 -x {3.1 1.0 5 ------- null}
h -t 1.12032746666667 -s 2 -d 1 -p ack -e 40 -c 0 -i 26 -a 0 -x {3.1 1.0 -1 ------- null}
r -t 1.12159146666667 -s 3 -d 2 -p ack -e 40 -c 0 -i 27 -a 0 -x {3.1 1.0 6 ------- null}
+ -t 1.12159146666667 -s 2 -d 1 -p ack -e 40 -c 0 -i 27 -a 0 -x {3.1 1.0 6 ------- null}
- -t 1.12159146666667 -s 2 -d 1 -p ack -e 40 -c 0 -i 27 -a 0 -x {3.1 1.0 6 ------- null}
h -t 1.12159146666667 -s 2 -d 1 -p ack -e 40 -c 0 -i 27 -a 0 -x {3.1 1.0 -1 ------- null}
r -t 1.12274453333333 -s 2 -d 0 -p ack -e 40 -c 0 -i 20 -a 0 -x {3.0 0.0 3 ------- null}
+ -t 1.12274453333333 -s 0 -d 2 -p tcp -e 1580 -c 0 -i 28 -a 0 -x {0.0 3.0 7 ------- null}
- -t 1.12274453333333 -s 0 -d 2 -p tcp -e 1580 -c 0 -i 28 -a 0 -x {0.0 3.0 7 ------- null}
h -t 1.12274453333333 -s 0 -d 2 -p tcp -e 1580 -c 0 -i 28 -a 0 -x {0.0 3.0 -1 ------- null}
+ -t 1.12274453333333 -s 0 -d 2 -p tcp -e 1580 -c 0 -i 29 -a 0 -x {0.0 3.0 8 ------- null}
- -t 1.12278666666667 -s 0 -d 2 -p tcp -e 1580 -c 0 -i 29 -a 0 -x {0.0 3.0 8 ------- null}
h -t 1.12278666666667 -s 0 -d 2 -p tcp -e 1580 -c 0 -i 29 -a 0 -x {0.0 3.0 -1 ------- null}
r -t 1.12400853333333 -s 2 -d 0 -p ack -e 40 -c 0 -i 21 -a 0 -x {3.0 0.0 4 ------- null}
+ -t 1.12400853333333 -s 0 -d 2 -p tcp -e 1580 -c 0 -i 30 -a 0 -x {0.0 3.0 9 ------- null}
- -t 1.12400853333333 -s 0 -d 2 -p tcp -e 1580 -c 0 -i 30 -a 0 -x {0.0 3.0 9 ------- null}
h -t 1.12400853333333 -s 0 -d 2 -p tcp -e 1580 -c 0 -i 30 -a 0 -x {0.0 3.0 -1 ------- null}
+ -t 1.12400853333333 -s 0 -d 2 -p tcp -e 1580 -c 0 -i 31 -a 0 -x {0.0 3.0 10 ------- null}
- -t 1.12405066666667 -s 0 -d 2 -p tcp -e 1580 -c 0 -i 31 -a 0 -x {0.0 3.0 10 ------- null}
h -t 1.12405066666667 -s 0 -d 2 -p tcp -e 1580 -c 0 -i 31 -a 0 -x {0.0 3.0 -1 ------- null}
r -t 1.12527253333333 -s 2 -d 1 -p ack -e 40 -c 0 -i 22 -a 0 -x {3.1 1.0 3 ------- null}
+ -t 1.12527253333333 -s 1 -d 2 -p tcp -e 1580 -c 0 -i 32 -a 0 -x {1.0 3.1 7 ------- null}
- -t 1.12527253333333 -s 1 -d 2 -p tcp -e 1580 -c 0 -i 32 -a 0 -x {1.0 3.1 7 ------- null}
h -t 1.12527253333333 -s 1 -d 2 -p tcp -e 1580 -c 0 -i 32 -a 0 -x {1.0 3.1 -1 ------- null}
+ -t 1.12527253333333 -s 1 -d 2 -p tcp -e 1580 -c 0 -i 33 -a 0 -x {1.0 3.1 8 ------- null}
- -t 1.12531466666667 -s 1 -d 2 -p tcp -e 1580 -c 0 -i 33 -a 0 -x {1.0 3.1 8 ------- null}
h -t 1.12531466666667 -s 1 -d 2 -p tcp -e 1580 -c 0 -i 33 -a 0 -x {1.0 3.1 -1 ------- null}
r -t 1.12653653333333 -s 2 -d 1 -p ack -e 40 -c 0 -i 23 -a 0 -x {3.1 1.0 4 ------- null}
+ -t 1.12653653333333 -s 1 -d 2 -p tcp -e 1580 -c 0 -i 34 -a 0 -x {1.0 3.1 9 ------- null}
- -t 1.12653653333333 -s 1 -d 2 -p tcp -e 1580 -c 0 -i 34 -a 0 -x {1.0 3.1 9 ------- null}
h -t 1.12653653333333 -s 1 -d 2 -p tcp -e 1580 -c 0 -i 34 -a 0 -x {1.0 3.1 -1 ------- null}
+ -t 1.12653653333333 -s 1 -d 2 -p tcp -e 1580 -c 0 -i 35 -a 0 -x {1.0 3.1 10 ------- null}
- -t 1.12657866666667 -s 1 -d 2 -p tcp -e 1580 -c 0 -i 35 -a 0 -x {1.0 3.1 10 ------- null}
h -t 1.12657866666667 -s 1 -d 2 -p tcp -e 1580 -c 0 -i 35 -a 0 -x {1.0 3.1 -1 ------- null}
r -t 1.12780053333333 -s 2 -d 0 -p ack -e 40 -c 0 -i 24 -a 0 -x {3.0 0.0 5 ------- null}
+ -t 1.12780053333333 -s 0 -d 2 -p tcp -e 1580 -c 0 -i 36 -a 0 -x {0.0 3.0 11 ------- null}
- -t 1.12780053333333 -s 0 -d 2 -p tcp -e 1580 -c 0 -i 36 -a 0 -x {0.0 3.0 11 ------- null}
h -t 1.12780053333333 -s 0 -d 2 -p tcp -e 1580 -c 0 -i 36 -a 0 -x {0.0 3.0 -1 ------- null}
+ -t 1.12780053333333 -s 0 -d 2 -p tcp -e 1580 -c 0 -i 37 -a 0 -x {0.0 3.0 12 ------- null}
- -t 1.12784266666667 -s 0 -d 2 -p tcp -e 1580 -c 0 -i 37 -a 0 -x {0.0 3.0 12 ------- null}
h -t 1.12784266666667 -s 0 -d 2 -p tcp -e 1580 -c 0 -i 37 -a 0 -x {0.0 3.0 -1 ------- null}
r -t 1.12906453333333 -s 2 -d 0 -p ack -e 40 -c 0 -i 25 -a 0 -x {3.0 0.0 6 ------- null}
+ -t 1.12906453333333 -s 0 -d 2 -p tcp -e 1580 -c 0 -i 38 -a 0 -x {0.0 3.0 13 ------- null}
- -t 1.12906453333333 -s 0 -d 2 -p tcp -e 1580 -c 0 -i 38 -a 0 -x {0.0 3.0 13 ------- null}
h -t 1.12906453333333 -s 0 -d 2 -p tcp -e 1580 -c 0 -i 38 -a 0 -x {0.0 3.0 -1 ------- null}
+ -t 1.12906453333333 -s 0 -d 2 -p tcp -e 1580 -c 0 -i 39 -a 0 -x {0.0 3.0 14 ------- null}
- -t 1.12910666666667 -s 0 -d 2 -p tcp -e 1580 -c 0 -i 39 -a 0 -x {0.0 3.0 14 ------- null}
h -t 1.12910666666667 -s 0 -d 2 -p tcp -e 1580 -c 0 -i 39 -a 0 -x {0.0 3.0 -1 ------- null}
r -t 1.13032853333333 -s 2 -d 1 -p ack -e 40 -c 0 -i 26 -a 0 -x {3.1 1.0 5 ------- null}
+ -t 1.13032853333333 -s 1 -d 2 -p tcp -e 1580 -c 0 -i 40 -a 0 -x {1.0 3.1 11 ------- null}
- -t 1.13032853333333 -s 1 -d 2 -p tcp -e 1580 -c 0 -i 40 -a 0 -x {1.0 3.1 11 ------- null}
h -t 1.13032853333333 -s 1 -d 2 -p tcp -e 1580 -c 0 -i 40 -a 0 -x {1.0 3.1 -1 ------- null}
+ -t 1.13032853333333 -s 1 -d 2 -p tcp -e 1580 -c 0 -i 41 -a 0 -x {1.0 3.1 12 ------- null}
- -t 1.13037066666667 -s 1 -d 2 -p tcp -e 1580 -c 0 -i 41 -a 0 -x {1.0 3.1 12 ------- null}
h -t 1.13037066666667 -s 1 -d 2 -p tcp -e 1580 -c 0 -i 41 -a 0 -x {1.0 3.1 -1 ------- null}
r -t 1.13159253333333 -s 2 -d 1 -p ack -e 40 -c 0 -i 27 -a 0 -x {3.1 1.0 6 ------- null}
+ -t 1.13159253333333 -s 1 -d 2 -p tcp -e 1580 -c 0 -i 42 -a 0 -x {1.0 3.1 13 ------- null}
- -t 1.13159253333333 -s 1 -d 2 -p tcp -e 1580 -c 0 -i 42 -a 0 -x {1.0 3.1 13 ------- null}
h -t 1.13159253333333 -s 1 -d 2 -p tcp -e 1580 -c 0 -i 42 -a 0 -x {1.0 3.1 -1 ------- null}
+ -t 1.13159253333333 -s 1 -d 2 -p tcp -e 1580 -c 0 -i 43 -a 0 -x {1.0 3.1 14 ------- null}
- -t 1.13163466666667 -s 1 -d 2 -p tcp -e 1580 -c 0 -i 43 -a 0 -x {1.0 3.1 14 ------- null}
h -t 1.13163466666667 -s 1 -d 2 -p tcp -e 1580 -c 0 -i 43 -a 0 -x {1.0 3.1 -1 ------- null}
r -t 1.13278666666667 -s 0 -d 2 -p tcp -e 1580 -c 0 -i 28 -a 0 -x {0.0 3.0 7 ------- null}
+ -t 1.13278666666667 -s 2 -d 3 -p tcp -e 1580 -c 0 -i 28 -a 0 -x {0.0 3.0 7 ------- null}
- -t 1.13278666666667 -s 2 -d 3 -p tcp -e 1580 -c 0 -i 28 -a 0 -x {0.0 3.0 7 ------- null}
h -t 1.13278666666667 -s 2 -d 3 -p tcp -e 1580 -c 0 -i 28 -a 0 -x {0.0 3.0 -1 ------- null}
r -t 1.1328288 -s 0 -d 2 -p tcp -e 1580 -c 0 -i 29 -a 0 -x {0.0 3.0 8 ------- null}
+ -t 1.1328288 -s 2 -d 3 -p tcp -e 1580 -c 0 -i 29 -a 0 -x {0.0 3.0 8 ------- null}
r -t 1.13405066666667 -s 0 -d 2 -p tcp -e 1580 -c 0 -i 30 -a 0 -x {0.0 3.0 9 ------- null}
+ -t 1.13405066666667 -s 2 -d 3 -p tcp -e 1580 -c 0 -i 30 -a 0 -x {0.0 3.0 9 ------- null}
- -t 1.13405066666667 -s 2 -d 3 -p tcp -e 1580 -c 0 -i 29 -a 0 -x {0.0 3.0 8 ------- null}
h -t 1.13405066666667 -s 2 -d 3 -p tcp -e 1580 -c 0 -i 29 -a 0 -x {0.0 3.0 -1 ------- null}
r -t 1.1340928 -s 0 -d 2 -p tcp -e 1580 -c 0 -i 31 -a 0 -x {0.0 3.0 10 ------- null}
+ -t 1.1340928 -s 2 -d 3 -p tcp -e 1580 -c 0 -i 31 -a 0 -x {0.0 3.0 10 ------- null}
r -t 1.13531466666667 -s 1 -d 2 -p tcp -e 1580 -c 0 -i 32 -a 0 -x {1.0 3.1 7 ------- null}
+ -t 1.13531466666667 -s 2 -d 3 -p tcp -e 1580 -c 0 -i 32 -a 0 -x {1.0 3.1 7 ------- null}
- -t 1.13531466666667 -s 2 -d 3 -p tcp -e 1580 -c 0 -i 30 -a 0 -x {0.0 3.0 9 ------- null}
h -t 1.13531466666667 -s 2 -d 3 -p tcp -e 1580 -c 0 -i 30 -a 0 -x {0.0 3.0 -1 ------- null}
r -t 1.1353568 -s 1 -d 2 -p tcp -e 1580 -c 0 -i 33 -a 0 -x {1.0 3.1 8 ------- null}
+ -t 1.1353568 -s 2 -d 3 -p tcp -e 1580 -c 0 -i 33 -a 0 -x {1.0 3.1 8 ------- null}
r -t 1.13657866666667 -s 1 -d 2 -p tcp -e 1580 -c 0 -i 34 -a 0 -x {1.0 3.1 9 ------- null}
+ -t 1.13657866666667 -s 2 -d 3 -p tcp -e 1580 -c 0 -i 34 -a 0 -x {1.0 3.1 9 ------- null}
- -t 1.13657866666667 -s 2 -d 3 -p tcp -e 1580 -c 0 -i 31 -a 0 -x {0.0 3.0 10 ------- null}
h -t 1.13657866666667 -s 2 -d 3 -p tcp -e 1580 -c 0 -i 31 -a 0 -x {0.0 3.0 -1 ------- null}
r -t 1.1366208 -s 1 -d 2 -p tcp -e 1580 -c 0 -i 35 -a 0 -x {1.0 3.1 10 ------- null}
+ -t 1.1366208 -s 2 -d 3 -p tcp -e 1580 -c 0 -i 35 -a 0 -x {1.0 3.1 10 ------- null}
r -t 1.13784266666667 -s 0 -d 2 -p tcp -e 1580 -c 0 -i 36 -a 0 -x {0.0 3.0 11 ------- null}
+ -t 1.13784266666667 -s 2 -d 3 -p tcp -e 1580 -c 0 -i 36 -a 0 -x {0.0 3.0 11 ------- null}
- -t 1.13784266666667 -s 2 -d 3 -p tcp -e 1580 -c 0 -i 32 -a 0 -x {1.0 3.1 7 ------- null}
h -t 1.13784266666667 -s 2 -d 3 -p tcp -e 1580 -c 0 -i 32 -a 0 -x {1.0 3.1 -1 ------- null}
r -t 1.1378848 -s 0 -d 2 -p tcp -e 1580 -c 0 -i 37 -a 0 -x {0.0 3.0 12 ------- null}
+ -t 1.1378848 -s 2 -d 3 -p tcp -e 1580 -c 0 -i 37 -a 0 -x {0.0 3.0 12 ------- null}
r -t 1.13910666666667 -s 0 -d 2 -p tcp -e 1580 -c 0 -i 38 -a 0 -x {0.0 3.0 13 ------- null}
+ -t 1.13910666666667 -s 2 -d 3 -p tcp -e 1580 -c 0 -i 38 -a 0 -x {0.0 3.0 13 ------- null}
- -t 1.13910666666667 -s 2 -d 3 -p tcp -e 1580 -c 0 -i 33 -a 0 -x {1.0 3.1 8 ------- null}
h -t 1.13910666666667 -s 2 -d 3 -p tcp -e 1580 -c 0 -i 33 -a 0 -x {1.0 3.1 -1 ------- null}
r -t 1.1391488 -s 0 -d 2 -p tcp -e 1580 -c 0 -i 39 -a 0 -x {0.0 3.0 14 ------- null}
+ -t 1.1391488 -s 2 -d 3 -p tcp -e 1580 -c 0 -i 39 -a 0 -x {0.0 3.0 14 ------- null}
r -t 1.14037066666667 -s 1 -d 2 -p tcp -e 1580 -c 0 -i 40 -a 0 -x {1.0 3.1 11 ------- null}
+ -t 1.14037066666667 -s 2 -d 3 -p tcp -e 1580 -c 0 -i 40 -a 0 -x {1.0 3.1 11 ------- null}
- -t 1.14037066666667 -s 2 -d 3 -p tcp -e 1580 -c 0 -i 34 -a 0 -x {1.0 3.1 9 ------- null}
h -t 1.14037066666667 -s 2 -d 3 -p tcp -e 1580 -c 0 -i 34 -a 0 -x {1.0 3.1 -1 ------- null}
r -t 1.1404128 -s 1 -d 2 -p tcp -e 1580 -c 0 -i 41 -a 0 -x {1.0 3.1 12 ------- null}
+ -t 1.1404128 -s 2 -d 3 -p tcp -e 1580 -c 0 -i 41 -a 0 -x {1.0 3.1 12 ------- null}
r -t 1.14163466666667 -s 1 -d 2 -p tcp -e 1580 -c 0 -i 42 -a 0 -x {1.0 3.1 13 ------- null}
+ -t 1.14163466666667 -s 2 -d 3 -p tcp -e 1580 -c 0 -i 42 -a 0 -x {1.0 3.1 13 ------- null}
- -t 1.14163466666667 -s 2 -d 3 -p tcp -e 1580 -c 0 -i 35 -a 0 -x {1.0 3.1 10 ------- null}
h -t 1.14163466666667 -s 2 -d 3 -p tcp -e 1580 -c 0 -i 35 -a 0 -x {1.0 3.1 -1 ------- null}
r -t 1.1416768 -s 1 -d 2 -p tcp -e 1580 -c 0 -i 43 -a 0 -x {1.0 3.1 14 ------- null}
+ -t 1.1416768 -s 2 -d 3 -p tcp -e 1580 -c 0 -i 43 -a 0 -x {1.0 3.1 14 ------- null}
- -t 1.14289866666667 -s 2 -d 3 -p tcp -e 1580 -c 0 -i 36 -a 0 -x {0.0 3.0 11 ------- null}
h -t 1.14289866666667 -s 2 -d 3 -p tcp -e 1580 -c 0 -i 36 -a 0 -x {0.0 3.0 -1 ------- null}
r -t 1.14405066666667 -s 2 -d 3 -p tcp -e 1580 -c 0 -i 28 -a 0 -x {0.0 3.0 7 ------- null}
+ -t 1.14405066666667 -s 3 -d 2 -p ack -e 40 -c 0 -i 44 -a 0 -x {3.0 0.0 7 ------- null}
- -t 1.14405066666667 -s 3 -d 2 -p ack -e 40 -c 0 -i 44 -a 0 -x {3.0 0.0 7 ------- null}
h -t 1.14405066666667 -s 3 -d 2 -p ack -e 40 -c 0 -i 44 -a 0 -x {3.0 0.0 -1 ------- null}
- -t 1.14416266666667 -s 2 -d 3 -p tcp -e 1580 -c 0 -i 37 -a 0 -x {0.0 3.0 12 ------- null}
h -t 1.14416266666667 -s 2 -d 3 -p tcp -e 1580 -c 0 -i 37 -a 0 -x {0.0 3.0 -1 ------- null}
r -t 1.14531466666667 -s 2 -d 3 -p tcp -e 1580 -c 0 -i 29 -a 0 -x {0.0 3.0 8 ------- null}