+ 1 0 2 tcp 40 ------- 0 0.0 3.0 0 0
- 1 0 2 tcp 40 ------- 0 0.0 3.0 0 0
+ 1 1 2 tcp 40 ------- 0 1.0 3.1 0 1
- 1 1 2 tcp 40 ------- 0 1.0 3.1 0 1
r 1.010001 0 2 tcp 40 ------- 0 0.0 3.0 0 0
+ 1.010001 2 3 tcp 40 ------- 0 0.0 3.0 0 0
- 1.010001 2 3 tcp 40 ------- 0 0.0 3.0 0 0
r 1.010001 1 2 tcp 40 ------- 0 1.0 3.1 0 1
+ 1.010001 2 3 tcp 40 ------- 0 1.0 3.1 0 1
- 1.010033 2 3 tcp 40 ------- 0 1.0 3.1 0 1
r 1.020033 2 3 tcp 40 ------- 0 0.0 3.0 0 0
+ 1.020033 3 2 ack 40 ------- 0 3.0 0.0 0 2
- 1.020033 3 2 ack 40 ------- 0 3.0 0.0 0 2
r 1.020065 2 3 tcp 40 ------- 0 1.0 3.1 0 1
+ 1.020065 3 2 ack 40 ------- 0 3.1 1.0 0 3
- 1.020065 3 2 ack 40 ------- 0 3.1 1.0 0 3
r 1.030065 3 2 ack 40 ------- 0 3.0 0.0 0 2
+ 1.030065 2 0 ack 40 ------- 0 3.0 0.0 0 2
- 1.030065 2 0 ack 40 ------- 0 3.0 0.0 0 2
r 1.030097 3 2 ack 40 ------- 0 3.1 1.0 0 3
+ 1.030097 2 1 ack 40 ------- 0 3.1 1.0 0 3
- 1.030097 2 1 ack 40 ------- 0 3.1 1.0 0 3
r 1.040066 2 0 ack 40 ------- 0 3.0 0.0 0 2
+ 1.040066 0 2 tcp 1580 ------- 0 0.0 3.0 1 4
- 1.040066 0 2 tcp 1580 ------- 0 0.0 3.0 1 4
+ 1.040066 0 2 tcp 1580 ------- 0 0.0 3.0 2 5
r 1.040098 2 1 ack 40 ------- 0 3.1 1.0 0 3
+ 1.040098 1 2 tcp 1580 ------- 0 1.0 3.1 1 6
- 1.040098 1 2 tcp 1580 ------- 0 1.0 3.1 1 6
+ 1.040098 1 2 tcp 1580 ------- 0 1.0 3.1 2 7
- 1.040108 0 2 tcp 1580 ------- 0 0.0 3.0 2 5
- 1.04014 1 2 tcp 1580 ------- 0 1.0 3.1 2 7
r 1.050108 0 2 tcp 1580 ------- 0 0.0 3.0 1 4
+ 1.050108 2 3 tcp 1580 ------- 0 0.0 3.0 1 4
- 1.050108 2 3 tcp 1580 ------- 0 0.0 3.0 1 4
r 1.05014 1 2 tcp 1580 ------- 0 1.0 3.1 1 6
+ 1.05014 2 3 tcp 1580 ------- 0 1.0 3.1 1 6
r 1.05015 0 2 tcp 1580 ------- 0 0.0 3.0 2 5
+ 1.05015 2 3 tcp 1580 ------- 0 0.0 3.0 2 5
r 1.050182 1 2 tcp 1580 ------- 0 1.0 3.1 2 7
+ 1.050182 2 3 tcp 1580 ------- 0 1.0 3.1 2 7
- 1.051372 2 3 tcp 1580 ------- 0 1.0 3.1 1 6
- 1.052636 2 3 tcp 1580 ------- 0 0.0 3.0 2 5
- 1.0539 2 3 tcp 1580 ------- 0 1.0 3.1 2 7
r 1.061372 2 3 tcp 1580 ------- 0 0.0 3.0 1 4
+ 1.061372 3 2 ack 40 ------- 0 3.0 0.0 1 8
- 1.061372 3 2 ack 40 ------- 0 3.0 0.0 1 8
r 1.062636 2 3 tcp 1580 ------- 0 1.0 3.1 1 6
+ 1.062636 3 2 ack 40 ------- 0 3.1 1.0 1 9
- 1.062636 3 2 ack 40 ------- 0 3.1 1.0 1 9
r 1.0639 2 3 tcp 1580 ------- 0 0.0 3.0 2 5
+ 1.0639 3 2 ack 40 ------- 0 3.0 0.0 2 10
- 1.0639 3 2 ack 40 ------- 0 3.0 0.0 2 10
r 1.065164 2 3 tcp 1580 ------- 0 1.0 3.1 2 7
+ 1.065164 3 2 ack 40 ------- 0 3.1 1.0 2 11
- 1.065164 3 2 ack 40 ------- 0 3.1 1.0 2 11
r 1.071404 3 2 ack 40 ------- 0 3.0 0.0 1 8
+ 1.071404 2 0 ack 40 ------- 0 3.0 0.0 1 8
- 1.071404 2 0 ack 40 ------- 0 3.0 0.0 1 8
r 1.072668 3 2 ack 40 ------- 0 3.1 1.0 1 9
+ 1.072668 2 1 ack 40 ------- 0 3.1 1.0 1 9
- 1.072668 2 1 ack 40 ------- 0 3.1 1.0 1 9
r 1.073932 3 2 ack 40 ------- 0 3.0 0.0 2 10
+ 1.073932 2 0 ack 40 ------- 0 3.0 0.0 2 10
- 1.073932 2 0 ack 40 ------- 0 3.0 0.0 2 10
r 1.075196 3 2 ack 40 ------- 0 3.1 1.0 2 11
+ 1.075196 2 1 ack 40 ------- 0 3.1 1.0 2 11
- 1.075196 2 1 ack 40 ------- 0 3.1 1.0 2 11
r 1.081405 2 0 ack 40 ------- 0 3.0 0.0 1 8
+ 1.081405 0 2 tcp 1580 ------- 0 0.0 3.0 3 12
- 1.081405 0 2 tcp 1580 ------- 0 0.0 3.0 3 12
+ 1.081405 0 2 tcp 1580 ------- 0 0.0 3.0 4 13
- 1.081447 0 2 tcp 1580 ------- 0 0.0 3.0 4 13
r 1.082669 2 1 ack 40 ------- 0 3.1 1.0 1 9
+ 1.082669 1 2 tcp 1580 ------- 0 1.0 3.1 3 14
- 1.082669 1 2 tcp 1580 ------- 0 1.0 3.1 3 14
+ 1.082669 1 2 tcp 1580 ------- 0 1.0 3.1 4 15
- 1.082711 1 2 tcp 1580 ------- 0 1.0 3.1 4 15
r 1.083933 2 0 ack 40 ------- 0 3.0 0.0 2 10
+ 1.083933 0 2 tcp 1580 ------- 0 0.0 3.0 5 16
- 1.083933 0 2 tcp 1580 ------- 0 0.0 3.0 5 16
+ 1.083933 0 2 tcp 1580 ------- 0 0.0 3.0 6 17
- 1.083975 0 2 tcp 1580 ------- 0 0.0 3.0 6 17
r 1.085197 2 1 ack 40 ------- 0 3.1 1.0 2 11
+ 1.085197 1 2 tcp 1580 ------- 0 1.0 3.1 5 18
- 1.085197 1 2 tcp 1580 ------- 0 1.0 3.1 5 18
+ 1.085197 1 2 tcp 1580 ------- 0 1.0 3.1 6 19
- 1.085239 1 2 tcp 1580 ------- 0 1.0 3.1 6 19
r 1.091447 0 2 tcp 1580 ------- 0 0.0 3.0 3 12
+ 1.091447 2 3 tcp 1580 ------- 0 0.0 3.0 3 12
- 1.091447 2 3 tcp 1580 ------- 0 0.0 3.0 3 12
r 1.09149 0 2 tcp 1580 ------- 0 0.0 3.0 4 13
+ 1.09149 2 3 tcp 1580 ------- 0 0.0 3.0 4 13
r 1.092711 1 2 tcp 1580 ------- 0 1.0 3.1 3 14
+ 1.092711 2 3 tcp 1580 ------- 0 1.0 3.1 3 14
- 1.092711 2 3 tcp 1580 ------- 0 0.0 3.0 4 13
r 1.092754 1 2 tcp 1580 ------- 0 1.0 3.1 4 15
+ 1.092754 2 3 tcp 1580 ------- 0 1.0 3.1 4 15
r 1.093975 0 2 tcp 1580 ------- 0 0.0 3.0 5 16
+ 1.093975 2 3 tcp 1580 ------- 0 0.0 3.0 5 16
- 1.093975 2 3 tcp 1580 ------- 0 1.0 3.1 3 14
r 1.094018 0 2 tcp 1580 ------- 0 0.0 3.0 6 17
+ 1.094018 2 3 tcp 1580 ------- 0 0.0 3.0 6 17
r 1.095239 1 2 tcp 1580 ------- 0 1.0 3.1 5 18
+ 1.095239 2 3 tcp 1580 ------- 0 1.0 3.1 5 18
- 1.095239 2 3 tcp 1580 ------- 0 1.0 3.1 4 15
r 1.095282 1 2 tcp 1580 ------- 0 1.0 3.1 6 19
+ 1.095282 2 3 tcp 1580 ------- 0 1.0 3.1 6 19
- 1.096503 2 3 tcp 1580 ------- 0 0.0 3.0 5 16
- 1.097767 2 3 tcp 1580 ------- 0 0.0 3.0 6 17
- 1.099031 2 3 tcp 1580 ------- 0 1.0 3.1 5 18
- 1.100295 2 3 tcp 1580 ------- 0 1.0 3.1 6 19
r 1.102711 2 3 tcp 1580 ------- 0 0.0 3.0 3 12
+ 1.102711 3 2 ack 40 ------- 0 3.0 0.0 3 20
- 1.102711 3 2 ack 40 ------- 0 3.0 0.0 3 20
r 1.103975 2 3 tcp 1580 ------- 0 0.0 3.0 4 13
+ 1.103975 3 2 ack 40 ------- 0 3.0 0.0 4 21
- 1.103975 3 2 ack 40 ------- 0 3.0 0.0 4 21
r 1.105239 2 3 tcp 1580 ------- 0 1.0 3.1 3 14
+ 1.105239 3 2 ack 40 ------- 0 3.1 1.0 3 22
- 1.105239 3 2 ack 40 ------- 0 3.1 1.0 3 22
r 1.106503 2 3 tcp 1580 ------- 0 1.0 3.1 4 15
+ 1.106503 3 2 ack 40 ------- 0 3.1 1.0 4 23
- 1.106503 3 2 ack 40 ------- 0 3.1 1.0 4 23
r 1.107767 2 3 tcp 1580 ------- 0 0.0 3.0 5 16
+ 1.107767 3 2 ack 40 ------- 0 3.0 0.0 5 24
- 1.107767 3 2 ack 40 ------- 0 3.0 0.0 5 24
r 1.109031 2 3 tcp 1580 ------- 0 0.0 3.0 6 17
+ 1.109031 3 2 ack 40 ------- 0 3.0 0.0 6 25
- 1.109031 3 2 ack 40 ------- 0 3.0 0.0 6 25
r 1.110295 2 3 tcp 1580 ------- 0 1.0 3.1 5 18
+ 1.110295 3 2 ack 40 ------- 0 3.1 1.0 5 26
- 1.110295 3 2 ack 40 ------- 0 3.1 1.0 5 26
r 1.111559 2 3 tcp 1580 ------- 0 1.0 3.1 6 19
+ 1.111559 3 2 ack 40 ------- 0 3.1 1.0 6 27
- 1.111559 3 2 ack 40 ------- 0 3.1 1.0 6 27
r 1.112743 3 2 ack 40 ------- 0 3.0 0.0 3 20
+ 1.112743 2 0 ack 40 ------- 0 3.0 0.0 3 20
- 1.112743 2 0 ack 40 ------- 0 3.0 0.0 3 20
r 1.114007 3 2 ack 40 ------- 0 3.0 0.0 4 21
+ 1.114007 2 0 ack 40 ------- 0 3.0 0.0 4 21
- 1.114007 2 0 ack 40 ------- 0 3.0 0.0 4 21
r 1.115271 3 2 ack 40 ------- 0 3.1 1.0 3 22
+ 1.115271 2 1 ack 40 ------- 0 3.1 1.0 3 22
- 1.115271 2 1 ack 40 ------- 0 3.1 1.0 3 22
r 1.116535 3 2 ack 40 ------- 0 3.1 1.0 4 23
+ 1.116535 2 1 ack 40 ------- 0 3.1 1.0 4 23
- 1.116535 2 1 ack 40 ------- 0 3.1 1.0 4 23
r 1.117799 3 2 ack 40 ------- 0 3.0 0.0 5 24
+ 1.117799 2 0 ack 40 ------- 0 3.0 0.0 5 24
- 1.117799 2 0 ack 40 ------- 0 3.0 0.0 5 24
r 1.119063 3 2 ack 40 ------- 0 3.0 0.0 6 25
+ 1.119063 2 0 ack 40 ------- 0 3.0 0.0 6 25
- 1.119063 2 0 ack 40 ------- 0 3.0 0.0 6 25
r 1.120327 3 2 ack 40 ------- 0 3.1 1.0 5 26
+ 1.120327 2 1 ack 40 ------- 0 3.1 1.0 5 26
- 1.120327 2 1 ack 40 ------- 0 3.1 1.0 5 26
r 1.121591 3 2 ack 40 ------- 0 3.1 1.0 6 27
+ 1.121591 2 1 ack 40 ------- 0 3.1 1.0 6 27
- 1.121591 2 1 ack 40 ------- 0 3.1 1.0 6 27
r 1.122745 2 0 ack 40 ------- 0 3.0 0.0 3 20
+ 1.122745 0 2 tcp 1580 ------- 0 0.0 3.0 7 28
- 1.122745 0 2 tcp 1580 ------- 0 0.0 3.0 7 28
+ 1.122745 0 2 tcp 1580 ------- 0 0.0 3.0 8 29
- 1.122787 0 2 tcp 1580 ------- 0 0.0 3.0 8 29
r 1.124009 2 0 ack 40 ------- 0 3.0 0.0 4 21
+ 1.124009 0 2 tcp 1580 ------- 0 0.0 3.0 9 30
- 1.124009 0 2 tcp 1580 ------- 0 0.0 3.0 9 30
+ 1.124009 0 2 tcp 1580 ------- 0 0.0 3.0 10 31
- 1.124051 0 2 tcp 1580 ------- 0 0.0 3.0 10 31
r 1.125273 2 1 ack 40 ------- 0 3.1 1.0 3 22
+ 1.125273 1 2 tcp 1580 ------- 0 1.0 3.1 7 32
- 1.125273 1 2 tcp 1580 ------- 0 1.0 3.1 7 32
+ 1.125273 1 2 tcp 1580 ------- 0 1.0 3.1 8 33
- 1.125315 1 2 tcp 1580 ------- 0 1.0 3.1 8 33
r 1.126537 2 1 ack 40 ------- 0 3.1 1.0 4 23
+ 1.126537 1 2 tcp 1580 ------- 0 1.0 3.1 9 34
- 1.126537 1 2 tcp 1580 ------- 0 1.0 3.1 9 34
+ 1.126537 1 2 tcp 1580 ------- 0 1.0 3.1 10 35
- 1.126579 1 2 tcp 1580 ------- 0 1.0 3.1 10 35
r 1.127801 2 0 ack 40 ------- 0 3.0 0.0 5 24
+ 1.127801 0 2 tcp 1580 ------- 0 0.0 3.0 11 36
- 1.127801 0 2 tcp 1580 ------- 0 0.0 3.0 11 36
+ 1.127801 0 2 tcp 1580 ------- 0 0.0 3.0 12 37
- 1.127843 0 2 tcp 1580 ------- 0 0.0 3.0 12 37
r 1.129065 2 0 ack 40 ------- 0 3.0 0.0 6 25
+ 1.129065 0 2 tcp 1580 ------- 0 0.0 3.0 13 38
- 1.129065 0 2 tcp 1580 ------- 0 0.0 3.0 13 38
+ 1.129065 0 2 tcp 1580 ------- 0 0.0 3.0 14 39
- 1.129107 0 2 tcp 1580 ------- 0 0.0 3.0 14 39
r 1.130329 2 1 ack 40 ------- 0 3.1 1.0 5 26
+ 1.130329 1 2 tcp 1580 ------- 0 1.0 3.1 11 40
- 1.130329 1 2 tcp 1580 ------- 0 1.0 3.1 11 40
+ 1.130329 1 2 tcp 1580 ------- 0 1.0 3.1 12 41
- 1.130371 1 2 tcp 1580 ------- 0 1.0 3.1 12 41
r 1.131593 2 1 ack 40 ------- 0 3.1 1.0 6 27
+ 1.131593 1 2 tcp 1580 ------- 0 1.0 3.1 13 42
- 1.131593 1 2 tcp 1580 ------- 0 1.0 3.1 13 42
+ 1.131593 1 2 tcp 1580 ------- 0 1.0 3.1 14 43
- 1.131635 1 2 tcp 1580 ------- 0 1.0 3.1 14 43
r 1.132787 0 2 tcp 1580 ------- 0 0.0 3.0 7 28
+ 1.132787 2 3 tcp 1580 ------- 0 0.0 3.0 7 28
- 1.132787 2 3 tcp 1580 ------- 0 0.0 3.0 7 28
r 1.132829 0 2 tcp 1580 ------- 0 0.0 3.0 8 29
+ 1.132829 2 3 tcp 1580 ------- 0 0.0 3.0 8 29
r 1.134051 0 2 tcp 1580 ------- 0 0.0 3.0 9 30
+ 1.134051 2 3 tcp 1580 ------- 0 0.0 3.0 9 30
- 1.134051 2 3 tcp 1580 ------- 0 0.0 3.0 8 29
r 1.134093 0 2 tcp 1580 ------- 0 0.0 3.0 10 31
+ 1.134093 2 3 tcp 1580 ------- 0 0.0 3.0 10 31
r 1.135315 1 2 tcp 1580 ------- 0 1.0 3.1 7 32
+ 1.135315 2 3 tcp 1580 ------- 0 1.0 3.1 7 32
- 1.135315 2 3 tcp 1580 ------- 0 0.0 3.0 9 30
r 1.135357 1 2 tcp 1580 ------- 0 1.0 3.1 8 33
+ 1.135357 2 3 tcp 1580 ------- 0 1.0 3.1 8 33
r 1.136579 1 2 tcp 1580 ------- 0 1.0 3.1 9 34
+ 1.136579 2 3 tcp 1580 ------- 0 1.0 3.1 9 34
- 1.136579 2 3 tcp 1580 ------- 0 0.0 3.0 10 31
r 1.136621 1 2 tcp 1580 ------- 0 1.0 3.1 10 35
+ 1.136621 2 3 tcp 1580 ------- 0 1.0 3.1 10 35
r 1.137843 0 2 tcp 1580 ------- 0 0.0 3.0 11 36
+ 1.137843 2 3 tcp 1580 ------- 0 0.0 3.0 11 36
- 1.137843 2 3 tcp 1580 ------- 0 1.0 3.1 7 32
r 1.137885 0 2 tcp 1580 ------- 0 0.0 3.0 12 37
+ 1.137885 2 3 tcp 1580 ------- 0 0.0 3.0 12 37
r 1.139107 0 2 tcp 1580 ------- 0 0.0 3.0 13 38
+ 1.139107 2 3 tcp 1580 ------- 0 0.0 3.0 13 38
- 1.139107 2 3 tcp 1580 ------- 0 1.0 3.1 8 33
r 1.139149 0 2 tcp 1580 ------- 0 0.0 3.0 14 39
+ 1.139149 2 3 tcp 1580 ------- 0 0.0 3.0 14 39
r 1.140371 1 2 tcp 1580 ------- 0 1.0 3.1 11 40
+ 1.140371 2 3 tcp 1580 ------- 0 1.0 3.1 11 40
- 1.140371 2 3 tcp 1580 ------- 0 1.0 3.1 9 34
r 1.140413 1 2 tcp 1580 ------- 0 1.0 3.1 12 41
+ 1.140413 2 3 tcp 1580 ------- 0 1.0 3.1 12 41
r 1.141635 1 2 tcp 1580 ------- 0 1.0 3.1 13 42
+ 1.141635 2 3 tcp 1580 ------- 0 1.0 3.1 13 42
- 1.141635 2 3 tcp 1580 ------- 0 1.0 3.1 10 35
r 1.141677 1 2 tcp 1580 ------- 0 1.0 3.1 14 43
+ 1.141677 2 3 tcp 1580 ------- 0 1.0 3.1 14 43
- 1.142899 2 3 tcp 1580 ------- 0 0.0 3.0 11 36
r 1.144051 2 3 tcp 1580 ------- 0 0.0 3.0 7 28
+ 1.144051 3 2 ack 40 ------- 0 3.0 0.0 7 44
- 1.144051 3 2 ack 40 ------- 0 3.0 0.0 7 44
- 1.144163 2 3 tcp 1580 ------- 0 0.0 3.0 12 37
r 1.145315 2 3 tcp 1580 ------- 0 0.0 3.0 8 29
+ 1.145315 3 2 ack 40 ------- 0 3.0 0.0 8 45
- 1.145315 3 2 ack 40 ------- 0 3.0 0.0 8 45
- 1.145427 2 3 tcp 1580 ------- 0 0.0 3.0 13 38
r 1.146579 2 3 tcp 1580 ------- 0 0.0 3.0 9 30
+ 1.146579 3 2 ack 40 ------- 0 3.0 0.0 9 46
- 1.146579 3 2 ack 40 ------- 0 3.0 0.0 9 46
- 1.146691 2 3 tcp 1580 ------- 0 0.0 3.0 14 39
r 1.147843 2 3 tcp 1580 ------- 0 0.0 3.0 10 31
+ 1.147843 3 2 ack 40 ------- 0 3.0 0.0 10 47
- 1.147843 3 2 ack 40 ------- 0 3.0 0.0 10 47
- 1.147955 2 3 tcp 1580 ------- 0 1.0 3.1 11 40
r 1.149107 2 3 tcp 1580 ------- 0 1.0 3.1 7 32
+ 1.149107 3 2 ack 40 ------- 0 3.1 1.0 7 48
- 1.149107 3 2 ack 40 ------- 0 3.1 1.0 7 48
- 1.149219 2 3 tcp 1580 ------- 0 1.0 3.1 12 41
r 1.150371 2 3 tcp 1580 ------- 0 1.0 3.1 8 33
+ 1.150371 3 2 ack 40 ------- 0 3.1 1.0 8 49
- 1.150371 3 2 ack 40 ------- 0 3.1 1.0 8 49
- 1.150483 2 3 tcp 1580 ------- 0 1.0 3.1 13 42
r 1.151635 2 3 tcp 1580 ------- 0 1.0 3.1 9 34
+ 1.151635 3 2 ack 40 ------- 0 3.1 1.0 9 50
- 1.151635 3 2 ack 40 ------- 0 3.1 1.0 9 50
- 1.151747 2 3 tcp 1580 ------- 0 1.0 3.1 14 43
r 1.152899 2 3 tcp 1580 ------- 0 1.0 3.1 10 35
+ 1.152899 3 2 ack 40 ------- 0 3.1 1.0 10 51
- 1.152899 3 2 ack 40 ------- 0 3.1 1.0 10 51
r 1.154083 3 2 ack 40 ------- 0 3.0 0.0 7 44
+ 1.154083 2 0 ack 40 ------- 0 3.0 0.0 7 44
- 1.154083 2 0 ack 40 ------- 0 3.0 0.0 7 44
r 1.154163 2 3 tcp 1580 ------- 0 0.0 3.0 11 36
+ 1.154163 3 2 ack 40 ------- 0 3.0 0.0 11 52
- 1.154163 3 2 ack 40 ------- 0 3.0 0.0 11 52
r 1.155347 3 2 ack 40 ------- 0 3.0 0.0 8 45
+ 1.155347 2 0 ack 40 ------- 0 3.0 0.0 8 45
- 1.155347 2 0 ack 40 ------- 0 3.0 0.0 8 45
r 1.155427 2 3 tcp 1580 ------- 0 0.0 3.0 12 37
+ 1.155427 3 2 ack 40 ------- 0 3.0 0.0 12 53
- 1.155427 3 2 ack 40 ------- 0 3.0 0.0 12 53
r 1.156611 3 2 ack 40 ------- 0 3.0 0.0 9 46
+ 1.156611 2 0 ack 40 ------- 0 3.0 0.0 9 46
- 1.156611 2 0 ack 40 ------- 0 3.0 0.0 9 46
r 1.156691 2 3 tcp 1580 ------- 0 0.0 3.0 13 38
+ 1.156691 3 2 ack 40 ------- 0 3.0 0.0 13 54
- 1.156691 3 2 ack 40 ------- 0 3.0 0.0 13 54
r 1.157875 3 2 ack 40 ------- 0 3.0 0.0 10 47
+ 1.157875 2 0 ack 40 ------- 0 3.0 0.0 10 47
- 1.157875 2 0 ack 40 ------- 0 3.0 0.0 10 47
r 1.157955 2 3 tcp 1580 ------- 0 0.0 3.0 14 39
+ 1.157955 3 2 ack 40 ------- 0 3.0 0.0 14 55
- 1.157955 3 2 ack 40 ------- 0 3.0 0.0 14 55
r 1.159139 3 2 ack 40 ------- 0 3.1 1.0 7 48
+ 1.159139 2 1 ack 40 ------- 0 3.1 1.0 7 48
- 1.159139 2 1 ack 40 ------- 0 3.1 1.0 7 48
r 1.159219 2 3 tcp 1580 ------- 0 1.0 3.1 11 40
+ 1.159219 3 2 ack 40 ------- 0 3.1 1.0 11 56
- 1.159219 3 2 ack 40 ------- 0 3.1 1.0 11 56
r 1.160403 3 2 ack 40 ------- 0 3.1 1.0 8 49
+ 1.160403 2 1 ack 40 ------- 0 3.1 1.0 8 49
- 1.160403 2 1 ack 40 ------- 0 3.1 1.0 8 49
r 1.160483 2 3 tcp 1580 ------- 0 1.0 3.1 12 41
+ 1.160483 3 2 ack 40 ------- 0 3.1 1.0 12 57
- 1.160483 3 2 ack 40 ------- 0 3.1 1.0 12 57
r 1.161667 3 2 ack 40 ------- 0 3.1 1.0 9 50
+ 1.161667 2 1 ack 40 ------- 0 3.1 1.0 9 50
- 1.161667 2 1 ack 40 ------- 0 3.1 1.0 9 50
r 1.161747 2 3 tcp 1580 ------- 0 1.0 3.1 13 42
+ 1.161747 3 2 ack 40 ------- 0 3.1 1.0 13 58
- 1.161747 3 2 ack 40 ------- 0 3.1 1.0 13 58
r 1.162931 3 2 ack 40 ------- 0 3.1 1.0 10 51
+ 1.162931 2 1 ack 40 ------- 0 3.1 1.0 10 51
- 1.162931 2 1 ack 40 ------- 0 3.1 1.0 10 51
r 1.163011 2 3 tcp 1580 ------- 0 1.0 3.1 14 43
+ 1.163011 3 2 ack 40 ------- 0 3.1 1.0 14 59
- 1.163011 3 2 ack 40 ------- 0 3.1 1.0 14 59
r 1.164084 2 0 ack 40 ------- 0 3.0 0.0 7 44
+ 1.164084 0 2 tcp 1580 ------- 0 0.0 3.0 15 60
- 1.164084 0 2 tcp 1580 ------- 0 0.0 3.0 15 60
+ 1.164084 0 2 tcp 1580 ------- 0 0.0 3.0 16 61
- 1.164126 0 2 tcp 1580 ------- 0 0.0 3.0 16 61
r 1.164195 3 2 ack 40 ------- 0 3.0 0.0 11 52
+ 1.164195 2 0 ack 40 ------- 0 3.0 0.0 11 52
- 1.164195 2 0 ack 40 ------- 0 3.0 0.0 11 52
r 1.165348 2 0 ack 40 ------- 0 3.0 0.0 8 45
+ 1.165348 0 2 tcp 1580 ------- 0 0.0 3.0 17 62
- 1.165348 0 2 tcp 1580 ------- 0 0.0 3.0 17 62
+ 1.165348 0 2 tcp 1580 ------- 0 0.0 3.0 18 63
- 1.16539 0 2 tcp 1580 ------- 0 0.0 3.0 18 63
r 1.165459 3 2 ack 40 ------- 0 3.0 0.0 12 53
+ 1.165459 2 0 ack 40 ------- 0 3.0 0.0 12 53
- 1.165459 2 0 ack 40 ------- 0 3.0 0.0 12 53
r 1.166612 2 0 ack 40 ------- 0 3.0 0.0 9 46
+ 1.166612 0 2 tcp 1580 ------- 0 0.0 3.0 19 64
- 1.166612 0 2 tcp 1580 ------- 0 0.0 3.0 19 64
+ 1.166612 0 2 tcp 1580 ------- 0 0.0 3.0 20 65
- 1.166654 0 2 tcp 1580 ------- 0 0.0 3.0 20 65
r 1.166723 3 2 ack 40 ------- 0 3.0 0.0 13 54
+ 1.166723 2 0 ack 40 ------- 0 3.0 0.0 13 54
- 1.166723 2 0 ack 40 ------- 0 3.0 0.0 13 54
r 1.167876 2 0 ack 40 ------- 0 3.0 0.0 10 47
+ 1.167876 0 2 tcp 1580 ------- 0 0.0 3.0 21 66
- 1.167876 0 2 tcp 1580 ------- 0 0.0 3.0 21 66
+ 1.167876 0 2 tcp 1580 ------- 0 0.0 3.0 22 67
- 1.167918 0 2 tcp 1580 ------- 0 0.0 3.0 22 67
r 1.167987 3 2 ack 40 ------- 0 3.0 0.0 14 55
+ 1.167987 2 0 ack 40 ------- 0 3.0 0.0 14 55
- 1.167987 2 0 ack 40 ------- 0 3.0 0.0 14 55
r 1.16914 2 1 ack 40 ------- 0 3.1 1.0 7 48
+ 1.16914 1 2 tcp 1580 ------- 0 1.0 3.1 15 68
- 1.16914 1 2 tcp 1580 ------- 0 1.0 3.1 15 68
+ 1.16914 1 2 tcp 1580 ------- 0 1.0 3.1 16 69
- 1.169182 1 2 tcp 1580 ------- 0 1.0 3.1 16 69
r 1.169251 3 2 ack 40 ------- 0 3.1 1.0 11 56
+ 1.169251 2 1 ack 40 ------- 0 3.1 1.0 11 56
- 1.169251 2 1 ack 40 ------- 0 3.1 1.0 11 56
r 1.170404 2 1 ack 40 ------- 0 3.1 1.0 8 49
+ 1.170404 1 2 tcp 1580 ------- 0 1.0 3.1 17 70
- 1.170404 1 2 tcp 1580 ------- 0 1.0 3.1 17 70
+ 1.170404 1 2 tcp 1580 ------- 0 1.0 3.1 18 71
- 1.170446 1 2 tcp 1580 ------- 0 1.0 3.1 18 71
r 1.170515 3 2 ack 40 ------- 0 3.1 1.0 12 57
+ 1.170515 2 1 ack 40 ------- 0 3.1 1.0 12 57
- 1.170515 2 1 ack 40 ------- 0 3.1 1.0 12 57
r 1.171668 2 1 ack 40 ------- 0 3.1 1.0 9 50
+ 1.171668 1 2 tcp 1580 ------- 0 1.0 3.1 19 72
- 1.171668 1 2 tcp 1580 ------- 0 1.0 3.1 19 72
+ 1.171668 1 2 tcp 1580 ------- 0 1.0 3.1 20 73
- 1.17171 1 2 tcp 1580 ------- 0 1.0 3.1 20 73
r 1.171779 3 2 ack 40 ------- 0 3.1 1.0 13 58
+ 1.171779 2 1 ack 40 ------- 0 3.1 1.0 13 58
- 1.171779 2 1 ack 40 ------- 0 3.1 1.0 13 58
r 1.172932 2 1 ack 40 ------- 0 3.1 1.0 10 51
+ 1.172932 1 2 tcp 1580 ------- 0 1.0 3.1 21 74
- 1.172932 1 2 tcp 1580 ------- 0 1.0 3.1 21 74
+ 1.172932 1 2 tcp 1580 ------- 0 1.0 3.1 22 75
- 1.172974 1 2 tcp 1580 ------- 0 1.0 3.1 22 75
r 1.173043 3 2 ack 40 ------- 0 3.1 1.0 14 59
+ 1.173043 2 1 ack 40 ------- 0 3.1 1.0 14 59
- 1.173043 2 1 ack 40 ------- 0 3.1 1.0 14 59
r 1.174126 0 2 tcp 1580 ------- 0 0.0 3.0 15 60
+ 1.174126 2 3 tcp 1580 ------- 0 0.0 3.0 15 60
- 1.174126 2 3 tcp 1580 ------- 0 0.0 3.0 15 60
r 1.174168 0 2 tcp 1580 ------- 0 0.0 3.0 16 61
+ 1.174168 2 3 tcp 1580 ------- 0 0.0 3.0 16 61
r 1.174196 2 0 ack 40 ------- 0 3.0 0.0 11 52
+ 1.174196 0 2 tcp 1580 ------- 0 0.0 3.0 23 76
- 1.174196 0 2 tcp 1580 ------- 0 0.0 3.0 23 76
+ 1.174196 0 2 tcp 1580 ------- 0 0.0 3.0 24 77
- 1.174238 0 2 tcp 1580 ------- 0 0.0 3.0 24 77
r 1.17539 0 2 tcp 1580 ------- 0 0.0 3.0 17 62
+ 1.17539 2 3 tcp 1580 ------- 0 0.0 3.0 17 62
- 1.17539 2 3 tcp 1580 ------- 0 0.0 3.0 16 61
r 1.175432 0 2 tcp 1580 ------- 0 0.0 3.0 18 63
+ 1.175432 2 3 tcp 1580 ------- 0 0.0 3.0 18 63
r 1.17546 2 0 ack 40 ------- 0 3.0 0.0 12 53
+ 1.17546 0 2 tcp 1580 ------- 0 0.0 3.0 25 78
- 1.17546 0 2 tcp 1580 ------- 0 0.0 3.0 25 78
+ 1.17546 0 2 tcp 1580 ------- 0 0.0 3.0 26 79
- 1.175502 0 2 tcp 1580 ------- 0 0.0 3.0 26 79
r 1.176654 0 2 tcp 1580 ------- 0 0.0 3.0 19 64
+ 1.176654 2 3 tcp 1580 ------- 0 0.0 3.0 19 64
- 1.176654 2 3 tcp 1580 ------- 0 0.0 3.0 17 62
r 1.176696 0 2 tcp 1580 ------- 0 0.0 3.0 20 65
+ 1.176696 2 3 tcp 1580 ------- 0 0.0 3.0 20 65
r 1.176724 2 0 ack 40 ------- 0 3.0 0.0 13 54
+ 1.176724 0 2 tcp 1580 ------- 0 0.0 3.0 27 80
- 1.176724 0 2 tcp 1580 ------- 0 0.0 3.0 27 80
+ 1.176724 0 2 tcp 1580 ------- 0 0.0 3.0 28 81
- 1.176766 0 2 tcp 1580 ------- 0 0.0 3.0 28 81
r 1.177918 0 2 tcp 1580 ------- 0 0.0 3.0 21 66
+ 1.177918 2 3 tcp 1580 ------- 0 0.0 3.0 21 66
- 1.177918 2 3 tcp 1580 ------- 0 0.0 3.0 18 63
r 1.17796 0 2 tcp 1580 ------- 0 0.0 3.0 22 67
+ 1.17796 2 3 tcp 1580 ------- 0 0.0 3.0 22 67
r 1.177988 2 0 ack 40 ------- 0 3.0 0.0 14 55
+ 1.177988 0 2 tcp 1580 ------- 0 0.0 3.0 29 82
- 1.177988 0 2 tcp 1580 ------- 0 0.0 3.0 29 82
+ 1.177988 0 2 tcp 1580 ------- 0 0.0 3.0 30 83
- 1.17803 0 2 tcp 1580 ------- 0 0.0 3.0 30 83
r 1.179182 1 2 tcp 1580 ------- 0 1.0 3.1 15 68
+ 1.179182 2 3 tcp 1580 ------- 0 1.0 3.1 15 68
- 1.179182 2 3 tcp 1580 ------- 0 0.0 3.0 19 64
r 1.179224 1 2 tcp 1580 ------- 0 1.0 3.1 16 69
+ 1.179224 2 3 tcp 1580 ------- 0 1.0 3.1 16 69
r 1.179252 2 1 ack 40 ------- 0 3.1 1.0 11 56
+ 1.179252 1 2 tcp 1580 ------- 0 1.0 3.1 23 84
- 1.179252 1 2 tcp 1580 ------- 0 1.0 3.1 23 84
+ 1.179252 1 2 tcp 1580 ------- 0 1.0 3.1 24 85
- 1.179294 1 2 tcp 1580 ------- 0 1.0 3.1 24 85
r 1.180446 1 2 tcp 1580 ------- 0 1.0 3.1 17 70
+ 1.180446 2 3 tcp 1580 ------- 0 1.0 3.1 17 70
- 1.180446 2 3 tcp 1580 ------- 0 0.0 3.0 20 65
r 1.180488 1 2 tcp 1580 ------- 0 1.0 3.1 18 71
+ 1.180488 2 3 tcp 1580 ------- 0 1.0 3.1 18 71
r 1.180516 2 1 ack 40 ------- 0 3.1 1.0 12 57
+ 1.180516 1 2 tcp 1580 ------- 0 1.0 3.1 25 86
- 1.180516 1 2 tcp 1580 ------- 0 1.0 3.1 25 86
+ 1.180516 1 2 tcp 1580 ------- 0 1.0 3.1 26 87
- 1.180558 1 2 tcp 1580 ------- 0 1.0 3.1 26 87
r 1.18171 1 2 tcp 1580 ------- 0 1.0 3.1 19 72
+ 1.18171 2 3 tcp 1580 ------- 0 1.0 3.1 19 72
- 1.18171 2 3 tcp 1580 ------- 0 0.0 3.0 21 66
r 1.181752 1 2 tcp 1580 ------- 0 1.0 3.1 20 73
+ 1.181752 2 3 tcp 1580 ------- 0 1.0 3.1 20 73
r 1.18178 2 1 ack 40 ------- 0 3.1 1.0 13 58
+ 1.18178 1 2 tcp 1580 ------- 0 1.0 3.1 27 88
- 1.18178 1 2 tcp 1580 ------- 0 1.0 3.1 27 88
+ 1.18178 1 2 tcp 1580 ------- 0 1.0 3.1 28 89
- 1.181822 1 2 tcp 1580 ------- 0 1.0 3.1 28 89
r 1.182974 1 2 tcp 1580 ------- 0 1.0 3.1 21 74
+ 1.182974 2 3 tcp 1580 ------- 0 1.0 3.1 21 74
- 1.182974 2 3 tcp 1580 ------- 0 0.0 3.0 22 67
r 1.183016 1 2 tcp 1580 ------- 0 1.0 3.1 22 75
+ 1.183016 2 3 tcp 1580 ------- 0 1.0 3.1 22 75
r 1.183044 2 1 ack 40 ------- 0 3.1 1.0 14 59
+ 1.183044 1 2 tcp 1580 ------- 0 1.0 3.1 29 90
- 1.183044 1 2 tcp 1580 ------- 0 1.0 3.1 29 90
+ 1.183044 1 2 tcp 1580 ------- 0 1.0 3.1 30 91
- 1.183086 1 2 tcp 1580 ------- 0 1.0 3.1 30 91
r 1.184238 0 2 tcp 1580 ------- 0 0.0 3.0 23 76
+ 1.184238 2 3 tcp 1580 ------- 0 0.0 3.0 23 76
- 1.184238 2 3 tcp 1580 ------- 0 1.0 3.1 15 68
r 1.18428 0 2 tcp 1580 ------- 0 0.0 3.0 24 77
+ 1.18428 2 3 tcp 1580 ------- 0 0.0 3.0 24 77
r 1.18539 2 3 tcp 1580 ------- 0 0.0 3.0 15 60
+ 1.18539 3 2 ack 40 ------- 0 3.0 0.0 15 92
- 1.18539 3 2 ack 40 ------- 0 3.0 0.0 15 92
r 1.185502 0 2 tcp 1580 ------- 0 0.0 3.0 25 78
+ 1.185502 2 3 tcp 1580 ------- 0 0.0 3.0 25 78
d 1.185502 2 3 tcp 1580 ------- 0 0.0 3.0 25 78
- 1.185502 2 3 tcp 1580 ------- 0 1.0 3.1 16 69
r 1.185544 0 2 tcp 1580 ------- 0 0.0 3.0 26 79
+ 1.185544 2 3 tcp 1580 ------- 0 0.0 3.0 26 79
r 1.186654 2 3 tcp 1580 ------- 0 0.0 3.0 16 61
+ 1.186654 3 2 ack 40 ------- 0 3.0 0.0 16 93
- 1.186654 3 2 ack 40 ------- 0 3.0 0.0 16 93
r 1.186766 0 2 tcp 1580 ------- 0 0.0 3.0 27 80
+ 1.186766 2 3 tcp 1580 ------- 0 0.0 3.0 27 80
d 1.186766 2 3 tcp 1580 ------- 0 0.0 3.0 27 80
- 1.186766 2 3 tcp 1580 ------- 0 1.0 3.1 17 70
r 1.186808 0 2 tcp 1580 ------- 0 0.0 3.0 28 81
+ 1.186808 2 3 tcp 1580 ------- 0 0.0 3.0 28 81
r 1.187918 2 3 tcp 1580 ------- 0 0.0 3.0 17 62
+ 1.187918 3 2 ack 40 ------- 0 3.0 0.0 17 94
- 1.187918 3 2 ack 40 ------- 0 3.0 0.0 17 94
r 1.18803 0 2 tcp 1580 ------- 0 0.0 3.0 29 82
+ 1.18803 2 3 tcp 1580 ------- 0 0.0 3.0 29 82
d 1.18803 2 3 tcp 1580 ------- 0 0.0 3.0 29 82
- 1.18803 2 3 tcp 1580 ------- 0 1.0 3.1 18 71
r 1.188072 0 2 tcp 1580 ------- 0 0.0 3.0 30 83
+ 1.188072 2 3 tcp 1580 ------- 0 0.0 3.0 30 83
r 1.189182 2 3 tcp 1580 ------- 0 0.0 3.0 18 63
+ 1.189182 3 2 ack 40 ------- 0 3.0 0.0 18 95
- 1.189182 3 2 ack 40 ------- 0 3.0 0.0 18 95
r 1.189294 1 2 tcp 1580 ------- 0 1.0 3.1 23 84
+ 1.189294 2 3 tcp 1580 ------- 0 1.0 3.1 23 84
d 1.189294 2 3 tcp 1580 ------- 0 1.0 3.1 23 84
- 1.189294 2 3 tcp 1580 ------- 0 1.0 3.1 19 72
r 1.189336 1 2 tcp 1580 ------- 0 1.0 3.1 24 85
+ 1.189336 2 3 tcp 1580 ------- 0 1.0 3.1 24 85
r 1.190446 2 3 tcp 1580 ------- 0 0.0 3.0 19 64
+ 1.190446 3 2 ack 40 ------- 0 3.0 0.0 19 96
- 1.190446 3 2 ack 40 ------- 0 3.0 0.0 19 96
r 1.190558 1 2 tcp 1580 ------- 0 1.0 3.1 25 86
+ 1.190558 2 3 tcp 1580 ------- 0 1.0 3.1 25 86
d 1.190558 2 3 tcp 1580 ------- 0 1.0 3.1 25 86
- 1.190558 2 3 tcp 1580 ------- 0 1.0 3.1 20 73
r 1.1906 1 2 tcp 1580 ------- 0 1.0 3.1 26 87
+ 1.1906 2 3 tcp 1580 ------- 0 1.0 3.1 26 87
r 1.19171 2 3 tcp 1580 ------- 0 0.0 3.0 20 65
+ 1.19171 3 2 ack 40 ------- 0 3.0 0.0 20 97
- 1.19171 3 2 ack 40 ------- 0 3.0 0.0 20 97
r 1.191822 1 2 tcp 1580 ------- 0 1.0 3.1 27 88
+ 1.191822 2 3 tcp 1580 ------- 0 1.0 3.1 27 88
d 1.191822 2 3 tcp 1580 ------- 0 1.0 3.1 27 88
- 1.191822 2 3 tcp 1580 ------- 0 1.0 3.1 21 74
r 1.191864 1 2 tcp 1580 ------- 0 1.0 3.1 28 89
+ 1.191864 2 3 tcp 1580 ------- 0 1.0 3.1 28 89
r 1.192974 2 3 tcp 1580 ------- 0 0.0 3.0 21 66
+ 1.192974 3 2 ack 40 ------- 0 3.0 0.0 21 98
- 1.192974 3 2 ack 40 ------- 0 3.0 0.0 21 98
r 1.193086 1 2 tcp 1580 ------- 0 1.0 3.1 29 90
+ 1.193086 2 3 tcp 1580 ------- 0 1.0 3.1 29 90
d 1.193086 2 3 tcp 1580 ------- 0 1.0 3.1 29 90
- 1.193086 2 3 tcp 1580 ------- 0 1.0 3.1 22 75
r 1.193128 1 2 tcp 1580 ------- 0 1.0 3.1 30 91
+ 1.193128 2 3 tcp 1580 ------- 0 1.0 3.1 30 91
r 1.194238 2 3 tcp 1580 ------- 0 0.0 3.0 22 67
+ 1.194238 3 2 ack 40 ------- 0 3.0 0.0 22 99
- 1.194238 3 2 ack 40 ------- 0 3.0 0.0 22 99
- 1.19435 2 3 tcp 1580 ------- 0 0.0 3.0 23 76
r 1.195422 3 2 ack 40 ------- 0 3.0 0.0 15 92
+ 1.195422 2 0 ack 40 ------- 0 3.0 0.0 15 92
- 1.195422 2 0 ack 40 ------- 0 3.0 0.0 15 92
r 1.195502 2 3 tcp 1580 ------- 0 1.0 3.1 15 68
+ 1.195502 3 2 ack 40 ------- 0 3.1 1.0 15 100
- 1.195502 3 2 ack 40 ------- 0 3.1 1.0 15 100
- 1.195614 2 3 tcp 1580 ------- 0 0.0 3.0 24 77
r 1.196686 3 2 ack 40 ------- 0 3.0 0.0 16 93
+ 1.196686 2 0 ack 40 ------- 0 3.0 0.0 16 93
- 1.196686 2 0 ack 40 ------- 0 3.0 0.0 16 93
r 1.196766 2 3 tcp 1580 ------- 0 1.0 3.1 16 69
+ 1.196766 3 2 ack 40 ------- 0 3.1 1.0 16 101
- 1.196766 3 2 ack 40 ------- 0 3.1 1.0 16 101
- 1.196878 2 3 tcp 1580 ------- 0 0.0 3.0 26 79
r 1.19795 3 2 ack 40 ------- 0 3.0 0.0 17 94
+ 1.19795 2 0 ack 40 ------- 0 3.0 0.0 17 94
- 1.19795 2 0 ack 40 ------- 0 3.0 0.0 17 94
r 1.19803 2 3 tcp 1580 ------- 0 1.0 3.1 17 70
+ 1.19803 3 2 ack 40 ------- 0 3.1 1.0 17 102
- 1.19803 3 2 ack 40 ------- 0 3.1 1.0 17 102
- 1.198142 2 3 tcp 1580 ------- 0 0.0 3.0 28 81
r 1.199214 3 2 ack 40 ------- 0 3.0 0.0 18 95
+ 1.199214 2 0 ack 40 ------- 0 3.0 0.0 18 95
- 1.199214 2 0 ack 40 ------- 0 3.0 0.0 18 95
r 1.199294 2 3 tcp 1580 ------- 0 1.0 3.1 18 71
+ 1.199294 3 2 ack 40 ------- 0 3.1 1.0 18 103
- 1.199294 3 2 ack 40 ------- 0 3.1 1.0 18 103
- 1.199406 2 3 tcp 1580 ------- 0 0.0 3.0 30 83
r 1.200478 3 2 ack 40 ------- 0 3.0 0.0 19 96
+ 1.200478 2 0 ack 40 ------- 0 3.0 0.0 19 96
- 1.200478 2 0 ack 40 ------- 0 3.0 0.0 19 96
r 1.200558 2 3 tcp 1580 ------- 0 1.0 3.1 19 72
+ 1.200558 3 2 ack 40 ------- 0 3.1 1.0 19 104
- 1.200558 3 2 ack 40 ------- 0 3.1 1.0 19 104
- 1.20067 2 3 tcp 1580 ------- 0 1.0 3.1 24 85
r 1.201742 3 2 ack 40 ------- 0 3.0 0.0 20 97
+ 1.201742 2 0 ack 40 ------- 0 3.0 0.0 20 97
- 1.201742 2 0 ack 40 ------- 0 3.0 0.0 20 97
r 1.201822 2 3 tcp 1580 ------- 0 1.0 3.1 20 73
+ 1.201822 3 2 ack 40 ------- 0 3.1 1.0 20 105
- 1.201822 3 2 ack 40 ------- 0 3.1 1.0 20 105
- 1.201934 2 3 tcp 1580 ------- 0 1.0 3.1 26 87
r 1.203006 3 2 ack 40 ------- 0 3.0 0.0 21 98
+ 1.203006 2 0 ack 40 ------- 0 3.0 0.0 21 98
- 1.203006 2 0 ack 40 ------- 0 3.0 0.0 21 98
r 1.203086 2 3 tcp 1580 ------- 0 1.0 3.1 21 74
+ 1.203086 3 2 ack 40 ------- 0 3.1 1.0 21 106
- 1.203086 3 2 ack 40 ------- 0 3.1 1.0 21 106
- 1.203198 2 3 tcp 1580 ------- 0 1.0 3.1 28 89
r 1.20427 3 2 ack 40 ------- 0 3.0 0.0 22 99
+ 1.20427 2 0 ack 40 ------- 0 3.0 0.0 22 99
- 1.20427 2 0 ack 40 ------- 0 3.0 0.0 22 99
r 1.20435 2 3 tcp 1580 ------- 0 1.0 3.1 22 75
+ 1.20435 3 2 ack 40 ------- 0 3.1 1.0 22 107
- 1.20435 3 2 ack 40 ------- 0 3.1 1.0 22 107
- 1.204462 2 3 tcp 1580 ------- 0 1.0 3.1 30 91
r 1.205423 2 0 ack 40 ------- 0 3.0 0.0 15 92
+ 1.205423 0 2 tcp 1580 ------- 0 0.0 3.0 31 108
- 1.205423 0 2 tcp 1580 ------- 0 0.0 3.0 31 108
+ 1.205423 0 2 tcp 1580 ------- 0 0.0 3.0 32 109
- 1.205465 0 2 tcp 1580 ------- 0 0.0 3.0 32 109
r 1.205534 3 2 ack 40 ------- 0 3.1 1.0 15 100
+ 1.205534 2 1 ack 40 ------- 0 3.1 1.0 15 100
- 1.205534 2 1 ack 40 ------- 0 3.1 1.0 15 100
r 1.205614 2 3 tcp 1580 ------- 0 0.0 3.0 23 76
+ 1.205614 3 2 ack 40 ------- 0 3.0 0.0 23 110
- 1.205614 3 2 ack 40 ------- 0 3.0 0.0 23 110
r 1.206687 2 0 ack 40 ------- 0 3.0 0.0 16 93
+ 1.206687 0 2 tcp 1580 ------- 0 0.0 3.0 33 111
- 1.206687 0 2 tcp 1580 ------- 0 0.0 3.0 33 111
+ 1.206687 0 2 tcp 1580 ------- 0 0.0 3.0 34 112
- 1.206729 0 2 tcp 1580 ------- 0 0.0 3.0 34 112
r 1.206798 3 2 ack 40 ------- 0 3.1 1.0 16 101
+ 1.206798 2 1 ack 40 ------- 0 3.1 1.0 16 101
- 1.206798 2 1 ack 40 ------- 0 3.1 1.0 16 101
r 1.206878 2 3 tcp 1580 ------- 0 0.0 3.0 24 77
+ 1.206878 3 2 ack 40 ------- 0 3.0 0.0 24 113
- 1.206878 3 2 ack 40 ------- 0 3.0 0.0 24 113
r 1.207951 2 0 ack 40 ------- 0 3.0 0.0 17 94
+ 1.207951 0 2 tcp 1580 ------- 0 0.0 3.0 35 114
- 1.207951 0 2 tcp 1580 ------- 0 0.0 3.0 35 114
+ 1.207951 0 2 tcp 1580 ------- 0 0.0 3.0 36 115
- 1.207993 0 2 tcp 1580 ------- 0 0.0 3.0 36 115
r 1.208062 3 2 ack 40 ------- 0 3.1 1.0 17 102
+ 1.208062 2 1 ack 40 ------- 0 3.1 1.0 17 102
- 1.208062 2 1 ack 40 ------- 0 3.1 1.0 17 102
r 1.208142 2 3 tcp 1580 ------- 0 0.0 3.0 26 79
+ 1.208142 3 2 ack 40 ------- 0 3.0 0.0 24 116
- 1.208142 3 2 ack 40 ------- 0 3.0 0.0 24 116
r 1.209215 2 0 ack 40 ------- 0 3.0 0.0 18 95
+ 1.209215 0 2 tcp 1580 ------- 0 0.0 3.0 37 117
- 1.209215 0 2 tcp 1580 ------- 0 0.0 3.0 37 117
+ 1.209215 0 2 tcp 1580 ------- 0 0.0 3.0 38 118
- 1.209257 0 2 tcp 1580 ------- 0 0.0 3.0 38 118
r 1.209326 3 2 ack 40 ------- 0 3.1 1.0 18 103
+ 1.209326 2 1 ack 40 ------- 0 3.1 1.0 18 103
- 1.209326 2 1 ack 40 ------- 0 3.1 1.0 18 103
r 1.209406 2 3 tcp 1580 ------- 0 0.0 3.0 28 81
+ 1.209406 3 2 ack 40 ------- 0 3.0 0.0 24 119
- 1.209406 3 2 ack 40 ------- 0 3.0 0.0 24 119
r 1.210479 2 0 ack 40 ------- 0 3.0 0.0 19 96
+ 1.210479 0 2 tcp 1580 ------- 0 0.0 3.0 39 120
- 1.210479 0 2 tcp 1580 ------- 0 0.0 3.0 39 120
r 1.21059 3 2 ack 40 ------- 0 3.1 1.0 19 104
+ 1.21059 2 1 ack 40 ------- 0 3.1 1.0 19 104
- 1.21059 2 1 ack 40 ------- 0 3.1 1.0 19 104
r 1.21067 2 3 tcp 1580 ------- 0 0.0 3.0 30 83