V -t * -v 1.0a5 -a 0
A -t * -n 1 -p 0 -o 0xffffffff -c 31 -a 1
A -t * -h 1 -m 2147483647 -s 0
n -t * -a 4 -s 4 -S UP -v circle -c black -i black
n -t * -a 0 -s 0 -S UP -v circle -c black -i black
n -t * -a 5 -s 5 -S UP -v circle -c black -i black
n -t * -a 1 -s 1 -S UP -v circle -c black -i black
n -t * -a 6 -s 6 -S UP -v circle -c black -i black
n -t * -a 2 -s 2 -S UP -v circle -c black -i black
n -t * -a 3 -s 3 -S UP -v circle -c black -i black
l -t * -s 0 -d 2 -S UP -r 500000 -D 0.01 -c black -o right-down
l -t * -s 1 -d 2 -S UP -r 100000000 -D 0.01 -c black -o right-up
l -t * -s 2 -d 3 -S UP -r 100000000 -D 0.01 -c black -o right
X -t * -n 7 -r 10.0Mb -D 10ms -o left
L -t * -s 7 -d 3 -o up
L -t * -s 7 -d 4 -o down
L -t * -s 7 -d 5 -o up
L -t * -s 7 -d 6 -o down
d -t 1 -s 0 -d 2 -p tcp -e 40 -c 0 -i 0 -a 0 -x {0.0 4.0 0 ------- null}
+ -t 1 -s 1 -d 2 -p cbr -e 1000 -c 0 -i 1 -a 0 -x {1.0 5.0 0 ------- null}
- -t 1 -s 1 -d 2 -p cbr -e 1000 -c 0 -i 1 -a 0 -x {1.0 5.0 0 ------- null}
h -t 1 -s 1 -d 2 -p cbr -e 1000 -c 0 -i 1 -a 0 -x {1.0 5.0 -1 ------- null}
+ -t 1.008 -s 1 -d 2 -p cbr -e 1000 -c 0 -i 2 -a 0 -x {1.0 5.0 1 ------- null}
- -t 1.008 -s 1 -d 2 -p cbr -e 1000 -c 0 -i 2 -a 0 -x {1.0 5.0 1 ------- null}
h -t 1.008 -s 1 -d 2 -p cbr -e 1000 -c 0 -i 2 -a 0 -x {1.0 5.0 -1 ------- null}
r -t 1.01008 -s 1 -d 2 -p cbr -e 1000 -c 0 -i 1 -a 0 -x {1.0 5.0 0 ------- null}
+ -t 1.01008 -s 2 -d 3 -p cbr -e 1000 -c 0 -i 1 -a 0 -x {1.0 5.0 0 ------- null}
- -t 1.01008 -s 2 -d 3 -p cbr -e 1000 -c 0 -i 1 -a 0 -x {1.0 5.0 0 ------- null}
h -t 1.01008 -s 2 -d 3 -p cbr -e 1000 -c 0 -i 1 -a 0 -x {1.0 5.0 -1 ------- null}
+ -t 1.016 -s 1 -d 2 -p cbr -e 1000 -c 0 -i 3 -a 0 -x {1.0 5.0 2 ------- null}
- -t 1.016 -s 1 -d 2 -p cbr -e 1000 -c 0 -i 3 -a 0 -x {1.0 5.0 2 ------- null}
h -t 1.016 -s 1 -d 2 -p cbr -e 1000 -c 0 -i 3 -a 0 -x {1.0 5.0 -1 ------- null}
r -t 1.01808 -s 1 -d 2 -p cbr -e 1000 -c 0 -i 2 -a 0 -x {1.0 5.0 1 ------- null}
+ -t 1.01808 -s 2 -d 3 -p cbr -e 1000 -c 0 -i 2 -a 0 -x {1.0 5.0 1 ------- null}
- -t 1.01808 -s 2 -d 3 -p cbr -e 1000 -c 0 -i 2 -a 0 -x {1.0 5.0 1 ------- null}
h -t 1.01808 -s 2 -d 3 -p cbr -e 1000 -c 0 -i 2 -a 0 -x {1.0 5.0 -1 ------- null}
r -t 1.02016 -s 2 -d 3 -p cbr -e 1000 -c 0 -i 1 -a 0 -x {1.0 5.0 0 ------- null}
h -t 1.02016 -s 3 -d 7 -p cbr -e 1000 -c 0 -i 1 -a 0 -x {1.0 5.0 0 ------- null}
+ -t 1.024 -s 1 -d 2 -p cbr -e 1000 -c 0 -i 4 -a 0 -x {1.0 5.0 3 ------- null}
- -t 1.024 -s 1 -d 2 -p cbr -e 1000 -c 0 -i 4 -a 0 -x {1.0 5.0 3 ------- null}
h -t 1.024 -s 1 -d 2 -p cbr -e 1000 -c 0 -i 4 -a 0 -x {1.0 5.0 -1 ------- null}
r -t 1.02608 -s 1 -d 2 -p cbr -e 1000 -c 0 -i 3 -a 0 -x {1.0 5.0 2 ------- null}
+ -t 1.02608 -s 2 -d 3 -p cbr -e 1000 -c 0 -i 3 -a 0 -x {1.0 5.0 2 ------- null}
- -t 1.02608 -s 2 -d 3 -p cbr -e 1000 -c 0 -i 3 -a 0 -x {1.0 5.0 2 ------- null}
h -t 1.02608 -s 2 -d 3 -p cbr -e 1000 -c 0 -i 3 -a 0 -x {1.0 5.0 -1 ------- null}
r -t 1.02816 -s 2 -d 3 -p cbr -e 1000 -c 0 -i 2 -a 0 -x {1.0 5.0 1 ------- null}
h -t 1.02816 -s 3 -d 7 -p cbr -e 1000 -c 0 -i 2 -a 0 -x {1.0 5.0 1 ------- null}
+ -t 1.03016 -s 3 -d 7 -p cbr -e 1000 -c 0 -i 1 -a 0 -x {1.0 5.0 0 ------- null}
- -t 1.03016 -s 3 -d 7 -p cbr -e 1000 -c 0 -i 1 -a 0 -x {1.0 5.0 0 ------- null}
h -t 1.03016 -s 3 -d 7 -p cbr -e 1000 -c 0 -i 1 -a 0 -x {1.0 5.0 -1 ------- null}
+ -t 1.032 -s 1 -d 2 -p cbr -e 1000 -c 0 -i 5 -a 0 -x {1.0 5.0 4 ------- null}
- -t 1.032 -s 1 -d 2 -p cbr -e 1000 -c 0 -i 5 -a 0 -x {1.0 5.0 4 ------- null}
h -t 1.032 -s 1 -d 2 -p cbr -e 1000 -c 0 -i 5 -a 0 -x {1.0 5.0 -1 ------- null}
r -t 1.03408 -s 1 -d 2 -p cbr -e 1000 -c 0 -i 4 -a 0 -x {1.0 5.0 3 ------- null}
+ -t 1.03408 -s 2 -d 3 -p cbr -e 1000 -c 0 -i 4 -a 0 -x {1.0 5.0 3 ------- null}
- -t 1.03408 -s 2 -d 3 -p cbr -e 1000 -c 0 -i 4 -a 0 -x {1.0 5.0 3 ------- null}
h -t 1.03408 -s 2 -d 3 -p cbr -e 1000 -c 0 -i 4 -a 0 -x {1.0 5.0 -1 ------- null}
r -t 1.03616 -s 2 -d 3 -p cbr -e 1000 -c 0 -i 3 -a 0 -x {1.0 5.0 2 ------- null}
h -t 1.03616 -s 3 -d 7 -p cbr -e 1000 -c 0 -i 3 -a 0 -x {1.0 5.0 2 ------- null}
+ -t 1.03816 -s 3 -d 7 -p cbr -e 1000 -c 0 -i 2 -a 0 -x {1.0 5.0 1 ------- null}
- -t 1.03816 -s 3 -d 7 -p cbr -e 1000 -c 0 -i 2 -a 0 -x {1.0 5.0 1 ------- null}
h -t 1.03816 -s 3 -d 7 -p cbr -e 1000 -c 0 -i 2 -a 0 -x {1.0 5.0 -1 ------- null}
+ -t 1.04 -s 1 -d 2 -p cbr -e 1000 -c 0 -i 6 -a 0 -x {1.0 5.0 5 ------- null}
- -t 1.04 -s 1 -d 2 -p cbr -e 1000 -c 0 -i 6 -a 0 -x {1.0 5.0 5 ------- null}
h -t 1.04 -s 1 -d 2 -p cbr -e 1000 -c 0 -i 6 -a 0 -x {1.0 5.0 -1 ------- null}
r -t 1.0409752 -s 7 -d 5 -p cbr -e 1000 -c 0 -i 1 -a 0 -x {1.0 5.0 0 ------- null}
r -t 1.04208 -s 1 -d 2 -p cbr -e 1000 -c 0 -i 5 -a 0 -x {1.0 5.0 4 ------- null}
+ -t 1.04208 -s 2 -d 3 -p cbr -e 1000 -c 0 -i 5 -a 0 -x {1.0 5.0 4 ------- null}
- -t 1.04208 -s 2 -d 3 -p cbr -e 1000 -c 0 -i 5 -a 0 -x {1.0 5.0 4 ------- null}
h -t 1.04208 -s 2 -d 3 -p cbr -e 1000 -c 0 -i 5 -a 0 -x {1.0 5.0 -1 ------- null}
r -t 1.04416 -s 2 -d 3 -p cbr -e 1000 -c 0 -i 4 -a 0 -x {1.0 5.0 3 ------- null}
h -t 1.04416 -s 3 -d 7 -p cbr -e 1000 -c 0 -i 4 -a 0 -x {1.0 5.0 3 ------- null}
+ -t 1.04616 -s 3 -d 7 -p cbr -e 1000 -c 0 -i 3 -a 0 -x {1.0 5.0 2 ------- null}
- -t 1.04616 -s 3 -d 7 -p cbr -e 1000 -c 0 -i 3 -a 0 -x {1.0 5.0 2 ------- null}
h -t 1.04616 -s 3 -d 7 -p cbr -e 1000 -c 0 -i 3 -a 0 -x {1.0 5.0 -1 ------- null}
+ -t 1.048 -s 1 -d 2 -p cbr -e 1000 -c 0 -i 7 -a 0 -x {1.0 5.0 6 ------- null}
- -t 1.048 -s 1 -d 2 -p cbr -e 1000 -c 0 -i 7 -a 0 -x {1.0 5.0 6 ------- null}
h -t 1.048 -s 1 -d 2 -p cbr -e 1000 -c 0 -i 7 -a 0 -x {1.0 5.0 -1 ------- null}
r -t 1.0489752 -s 7 -d 5 -p cbr -e 1000 -c 0 -i 2 -a 0 -x {1.0 5.0 1 ------- null}
r -t 1.05008 -s 1 -d 2 -p cbr -e 1000 -c 0 -i 6 -a 0 -x {1.0 5.0 5 ------- null}
+ -t 1.05008 -s 2 -d 3 -p cbr -e 1000 -c 0 -i 6 -a 0 -x {1.0 5.0 5 ------- null}
- -t 1.05008 -s 2 -d 3 -p cbr -e 1000 -c 0 -i 6 -a 0 -x {1.0 5.0 5 ------- null}
h -t 1.05008 -s 2 -d 3 -p cbr -e 1000 -c 0 -i 6 -a 0 -x {1.0 5.0 -1 ------- null}
r -t 1.05216 -s 2 -d 3 -p cbr -e 1000 -c 0 -i 5 -a 0 -x {1.0 5.0 4 ------- null}
h -t 1.05216 -s 3 -d 7 -p cbr -e 1000 -c 0 -i 5 -a 0 -x {1.0 5.0 4 ------- null}
+ -t 1.05416 -s 3 -d 7 -p cbr -e 1000 -c 0 -i 4 -a 0 -x {1.0 5.0 3 ------- null}
- -t 1.05416 -s 3 -d 7 -p cbr -e 1000 -c 0 -i 4 -a 0 -x {1.0 5.0 3 ------- null}
h -t 1.05416 -s 3 -d 7 -p cbr -e 1000 -c 0 -i 4 -a 0 -x {1.0 5.0 -1 ------- null}
+ -t 1.056 -s 1 -d 2 -p cbr -e 1000 -c 0 -i 8 -a 0 -x {1.0 5.0 7 ------- null}
- -t 1.056 -s 1 -d 2 -p cbr -e 1000 -c 0 -i 8 -a 0 -x {1.0 5.0 7 ------- null}
h -t 1.056 -s 1 -d 2 -p cbr -e 1000 -c 0 -i 8 -a 0 -x {1.0 5.0 -1 ------- null}
r -t 1.0569752 -s 7 -d 5 -p cbr -e 1000 -c 0 -i 3 -a 0 -x {1.0 5.0 2 ------- null}
r -t 1.05808 -s 1 -d 2 -p cbr -e 1000 -c 0 -i 7 -a 0 -x {1.0 5.0 6 ------- null}
+ -t 1.05808 -s 2 -d 3 -p cbr -e 1000 -c 0 -i 7 -a 0 -x {1.0 5.0 6 ------- null}
- -t 1.05808 -s 2 -d 3 -p cbr -e 1000 -c 0 -i 7 -a 0 -x {1.0 5.0 6 ------- null}
h -t 1.05808 -s 2 -d 3 -p cbr -e 1000 -c 0 -i 7 -a 0 -x {1.0 5.0 -1 ------- null}
r -t 1.06016 -s 2 -d 3 -p cbr -e 1000 -c 0 -i 6 -a 0 -x {1.0 5.0 5 ------- null}
h -t 1.06016 -s 3 -d 7 -p cbr -e 1000 -c 0 -i 6 -a 0 -x {1.0 5.0 5 ------- null}
+ -t 1.06216 -s 3 -d 7 -p cbr -e 1000 -c 0 -i 5 -a 0 -x {1.0 5.0 4 ------- null}
- -t 1.06216 -s 3 -d 7 -p cbr -e 1000 -c 0 -i 5 -a 0 -x {1.0 5.0 4 ------- null}
h -t 1.06216 -s 3 -d 7 -p cbr -e 1000 -c 0 -i 5 -a 0 -x {1.0 5.0 -1 ------- null}
+ -t 1.064 -s 1 -d 2 -p cbr -e 1000 -c 0 -i 9 -a 0 -x {1.0 5.0 8 ------- null}
- -t 1.064 -s 1 -d 2 -p cbr -e 1000 -c 0 -i 9 -a 0 -x {1.0 5.0 8 ------- null}
h -t 1.064 -s 1 -d 2 -p cbr -e 1000 -c 0 -i 9 -a 0 -x {1.0 5.0 -1 ------- null}
r -t 1.0649752 -s 7 -d 5 -p cbr -e 1000 -c 0 -i 4 -a 0 -x {1.0 5.0 3 ------- null}
r -t 1.06608 -s 1 -d 2 -p cbr -e 1000 -c 0 -i 8 -a 0 -x {1.0 5.0 7 ------- null}
+ -t 1.06608 -s 2 -d 3 -p cbr -e 1000 -c 0 -i 8 -a 0 -x {1.0 5.0 7 ------- null}
- -t 1.06608 -s 2 -d 3 -p cbr -e 1000 -c 0 -i 8 -a 0 -x {1.0 5.0 7 ------- null}
h -t 1.06608 -s 2 -d 3 -p cbr -e 1000 -c 0 -i 8 -a 0 -x {1.0 5.0 -1 ------- null}
r -t 1.06816 -s 2 -d 3 -p cbr -e 1000 -c 0 -i 7 -a 0 -x {1.0 5.0 6 ------- null}
h -t 1.06816 -s 3 -d 7 -p cbr -e 1000 -c 0 -i 7 -a 0 -x {1.0 5.0 6 ------- null}
+ -t 1.07016 -s 3 -d 7 -p cbr -e 1000 -c 0 -i 6 -a 0 -x {1.0 5.0 5 ------- null}
- -t 1.07016 -s 3 -d 7 -p cbr -e 1000 -c 0 -i 6 -a 0 -x {1.0 5.0 5 ------- null}
h -t 1.07016 -s 3 -d 7 -p cbr -e 1000 -c 0 -i 6 -a 0 -x {1.0 5.0 -1 ------- null}
+ -t 1.072 -s 1 -d 2 -p cbr -e 1000 -c 0 -i 10 -a 0 -x {1.0 5.0 9 ------- null}
- -t 1.072 -s 1 -d 2 -p cbr -e 1000 -c 0 -i 10 -a 0 -x {1.0 5.0 9 ------- null}
h -t 1.072 -s 1 -d 2 -p cbr -e 1000 -c 0 -i 10 -a 0 -x {1.0 5.0 -1 ------- null}
r -t 1.0729752 -s 7 -d 5 -p cbr -e 1000 -c 0 -i 5 -a 0 -x {1.0 5.0 4 ------- null}
r -t 1.07408 -s 1 -d 2 -p cbr -e 1000 -c 0 -i 9 -a 0 -x {1.0 5.0 8 ------- null}
+ -t 1.07408 -s 2 -d 3 -p cbr -e 1000 -c 0 -i 9 -a 0 -x {1.0 5.0 8 ------- null}
- -t 1.07408 -s 2 -d 3 -p cbr -e 1000 -c 0 -i 9 -a 0 -x {1.0 5.0 8 ------- null}
h -t 1.07408 -s 2 -d 3 -p cbr -e 1000 -c 0 -i 9 -a 0 -x {1.0 5.0 -1 ------- null}
r -t 1.07616 -s 2 -d 3 -p cbr -e 1000 -c 0 -i 8 -a 0 -x {1.0 5.0 7 ------- null}
h -t 1.07616 -s 3 -d 7 -p cbr -e 1000 -c 0 -i 8 -a 0 -x {1.0 5.0 7 ------- null}
+ -t 1.07816 -s 3 -d 7 -p cbr -e 1000 -c 0 -i 7 -a 0 -x {1.0 5.0 6 ------- null}
- -t 1.07816 -s 3 -d 7 -p cbr -e 1000 -c 0 -i 7 -a 0 -x {1.0 5.0 6 ------- null}
h -t 1.07816 -s 3 -d 7 -p cbr -e 1000 -c 0 -i 7 -a 0 -x {1.0 5.0 -1 ------- null}
+ -t 1.08 -s 1 -d 2 -p cbr -e 1000 -c 0 -i 11 -a 0 -x {1.0 5.0 10 ------- null}
- -t 1.08 -s 1 -d 2 -p cbr -e 1000 -c 0 -i 11 -a 0 -x {1.0 5.0 10 ------- null}
h -t 1.08 -s 1 -d 2 -p cbr -e 1000 -c 0 -i 11 -a 0 -x {1.0 5.0 -1 ------- null}
r -t 1.0809752 -s 7 -d 5 -p cbr -e 1000 -c 0 -i 6 -a 0 -x {1.0 5.0 5 ------- null}
r -t 1.08208 -s 1 -d 2 -p cbr -e 1000 -c 0 -i 10 -a 0 -x {1.0 5.0 9 ------- null}
+ -t 1.08208 -s 2 -d 3 -p cbr -e 1000 -c 0 -i 10 -a 0 -x {1.0 5.0 9 ------- null}
- -t 1.08208 -s 2 -d 3 -p cbr -e 1000 -c 0 -i 10 -a 0 -x {1.0 5.0 9 ------- null}
h -t 1.08208 -s 2 -d 3 -p cbr -e 1000 -c 0 -i 10 -a 0 -x {1.0 5.0 -1 ------- null}
r -t 1.08416 -s 2 -d 3 -p cbr -e 1000 -c 0 -i 9 -a 0 -x {1.0 5.0 8 ------- null}
h -t 1.08416 -s 3 -d 7 -p cbr -e 1000 -c 0 -i 9 -a 0 -x {1.0 5.0 8 ------- null}
+ -t 1.08616 -s 3 -d 7 -p cbr -e 1000 -c 0 -i 8 -a 0 -x {1.0 5.0 7 ------- null}
- -t 1.08616 -s 3 -d 7 -p cbr -e 1000 -c 0 -i 8 -a 0 -x {1.0 5.0 7 ------- null}
h -t 1.08616 -s 3 -d 7 -p cbr -e 1000 -c 0 -i 8 -a 0 -x {1.0 5.0 -1 ------- null}
+ -t 1.088 -s 1 -d 2 -p cbr -e 1000 -c 0 -i 12 -a 0 -x {1.0 5.0 11 ------- null}
- -t 1.088 -s 1 -d 2 -p cbr -e 1000 -c 0 -i 12 -a 0 -x {1.0 5.0 11 ------- null}
h -t 1.088 -s 1 -d 2 -p cbr -e 1000 -c 0 -i 12 -a 0 -x {1.0 5.0 -1 ------- null}
r -t 1.0889752 -s 7 -d 5 -p cbr -e 1000 -c 0 -i 7 -a 0 -x {1.0 5.0 6 ------- null}
r -t 1.09008 -s 1 -d 2 -p cbr -e 1000 -c 0 -i 11 -a 0 -x {1.0 5.0 10 ------- null}
+ -t 1.09008 -s 2 -d 3 -p cbr -e 1000 -c 0 -i 11 -a 0 -x {1.0 5.0 10 ------- null}
- -t 1.09008 -s 2 -d 3 -p cbr -e 1000 -c 0 -i 11 -a 0 -x {1.0 5.0 10 ------- null}
h -t 1.09008 -s 2 -d 3 -p cbr -e 1000 -c 0 -i 11 -a 0 -x {1.0 5.0 -1 ------- null}
r -t 1.09216 -s 2 -d 3 -p cbr -e 1000 -c 0 -i 10 -a 0 -x {1.0 5.0 9 ------- null}
h -t 1.09216 -s 3 -d 7 -p cbr -e 1000 -c 0 -i 10 -a 0 -x {1.0 5.0 9 ------- null}
+ -t 1.09416 -s 3 -d 7 -p cbr -e 1000 -c 0 -i 9 -a 0 -x {1.0 5.0 8 ------- null}
- -t 1.09416 -s 3 -d 7 -p cbr -e 1000 -c 0 -i 9 -a 0 -x {1.0 5.0 8 ------- null}
h -t 1.09416 -s 3 -d 7 -p cbr -e 1000 -c 0 -i 9 -a 0 -x {1.0 5.0 -1 ------- null}
+ -t 1.096 -s 1 -d 2 -p cbr -e 1000 -c 0 -i 13 -a 0 -x {1.0 5.0 12 ------- null}
- -t 1.096 -s 1 -d 2 -p cbr -e 1000 -c 0 -i 13 -a 0 -x {1.0 5.0 12 ------- null}
h -t 1.096 -s 1 -d 2 -p cbr -e 1000 -c 0 -i 13 -a 0 -x {1.0 5.0 -1 ------- null}
r -t 1.0969752 -s 7 -d 5 -p cbr -e 1000 -c 0 -i 8 -a 0 -x {1.0 5.0 7 ------- null}
r -t 1.09808 -s 1 -d 2 -p cbr -e 1000 -c 0 -i 12 -a 0 -x {1.0 5.0 11 ------- null}
+ -t 1.09808 -s 2 -d 3 -p cbr -e 1000 -c 0 -i 12 -a 0 -x {1.0 5.0 11 ------- null}
- -t 1.09808 -s 2 -d 3 -p cbr -e 1000 -c 0 -i 12 -a 0 -x {1.0 5.0 11 ------- null}
h -t 1.09808 -s 2 -d 3 -p cbr -e 1000 -c 0 -i 12 -a 0 -x {1.0 5.0 -1 ------- null}
r -t 1.10016 -s 2 -d 3 -p cbr -e 1000 -c 0 -i 11 -a 0 -x {1.0 5.0 10 ------- null}
h -t 1.10016 -s 3 -d 7 -p cbr -e 1000 -c 0 -i 11 -a 0 -x {1.0 5.0 10 ------- null}
+ -t 1.10216 -s 3 -d 7 -p cbr -e 1000 -c 0 -i 10 -a 0 -x {1.0 5.0 9 ------- null}
- -t 1.10216 -s 3 -d 7 -p cbr -e 1000 -c 0 -i 10 -a 0 -x {1.0 5.0 9 ------- null}
h -t 1.10216 -s 3 -d 7 -p cbr -e 1000 -c 0 -i 10 -a 0 -x {1.0 5.0 -1 ------- null}
+ -t 1.104 -s 1 -d 2 -p cbr -e 1000 -c 0 -i 14 -a 0 -x {1.0 5.0 13 ------- null}
- -t 1.104 -s 1 -d 2 -p cbr -e 1000 -c 0 -i 14 -a 0 -x {1.0 5.0 13 ------- null}
h -t 1.104 -s 1 -d 2 -p cbr -e 1000 -c 0 -i 14 -a 0 -x {1.0 5.0 -1 ------- null}
r -t 1.1049752 -s 7 -d 5 -p cbr -e 1000 -c 0 -i 9 -a 0 -x {1.0 5.0 8 ------- null}
r -t 1.10608 -s 1 -d 2 -p cbr -e 1000 -c 0 -i 13 -a 0 -x {1.0 5.0 12 ------- null}
+ -t 1.10608 -s 2 -d 3 -p cbr -e 1000 -c 0 -i 13 -a 0 -x {1.0 5.0 12 ------- null}
- -t 1.10608 -s 2 -d 3 -p cbr -e 1000 -c 0 -i 13 -a 0 -x {1.0 5.0 12 ------- null}
h -t 1.10608 -s 2 -d 3 -p cbr -e 1000 -c 0 -i 13 -a 0 -x {1.0 5.0 -1 ------- null}
r -t 1.10816 -s 2 -d 3 -p cbr -e 1000 -c 0 -i 12 -a 0 -x {1.0 5.0 11 ------- null}
h -t 1.10816 -s 3 -d 7 -p cbr -e 1000 -c 0 -i 12 -a 0 -x {1.0 5.0 11 ------- null}
+ -t 1.11016 -s 3 -d 7 -p cbr -e 1000 -c 0 -i 11 -a 0 -x {1.0 5.0 10 ------- null}
- -t 1.11016 -s 3 -d 7 -p cbr -e 1000 -c 0 -i 11 -a 0 -x {1.0 5.0 10 ------- null}
h -t 1.11016 -s 3 -d 7 -p cbr -e 1000 -c 0 -i 11 -a 0 -x {1.0 5.0 -1 ------- null}
+ -t 1.112 -s 1 -d 2 -p cbr -e 1000 -c 0 -i 15 -a 0 -x {1.0 5.0 14 ------- null}
- -t 1.112 -s 1 -d 2 -p cbr -e 1000 -c 0 -i 15 -a 0 -x {1.0 5.0 14 ------- null}
h -t 1.112 -s 1 -d 2 -p cbr -e 1000 -c 0 -i 15 -a 0 -x {1.0 5.0 -1 ------- null}
r -t 1.1129752 -s 7 -d 5 -p cbr -e 1000 -c 0 -i 10 -a 0 -x {1.0 5.0 9 ------- null}
r -t 1.11408 -s 1 -d 2 -p cbr -e 1000 -c 0 -i 14 -a 0 -x {1.0 5.0 13 ------- null}
+ -t 1.11408 -s 2 -d 3 -p cbr -e 1000 -c 0 -i 14 -a 0 -x {1.0 5.0 13 ------- null}
- -t 1.11408 -s 2 -d 3 -p cbr -e 1000 -c 0 -i 14 -a 0 -x {1.0 5.0 13 ------- null}
h -t 1.11408 -s 2 -d 3 -p cbr -e 1000 -c 0 -i 14 -a 0 -x {1.0 5.0 -1 ------- null}
r -t 1.11616 -s 2 -d 3 -p cbr -e 1000 -c 0 -i 13 -a 0 -x {1.0 5.0 12 ------- null}
h -t 1.11616 -s 3 -d 7 -p cbr -e 1000 -c 0 -i 13 -a 0 -x {1.0 5.0 12 ------- null}
+ -t 1.11816 -s 3 -d 7 -p cbr -e 1000 -c 0 -i 12 -a 0 -x {1.0 5.0 11 ------- null}
- -t 1.11816 -s 3 -d 7 -p cbr -e 1000 -c 0 -i 12 -a 0 -x {1.0 5.0 11 ------- null}
h -t 1.11816 -s 3 -d 7 -p cbr -e 1000 -c 0 -i 12 -a 0 -x {1.0 5.0 -1 ------- null}
+ -t 1.12 -s 1 -d 2 -p cbr -e 1000 -c 0 -i 16 -a 0 -x {1.0 5.0 15 ------- null}
- -t 1.12 -s 1 -d 2 -p cbr -e 1000 -c 0 -i 16 -a 0 -x {1.0 5.0 15 ------- null}
h -t 1.12 -s 1 -d 2 -p cbr -e 1000 -c 0 -i 16 -a 0 -x {1.0 5.0 -1 ------- null}
r -t 1.1209752 -s 7 -d 5 -p cbr -e 1000 -c 0 -i 11 -a 0 -x {1.0 5.0 10 ------- null}
r -t 1.12208 -s 1 -d 2 -p cbr -e 1000 -c 0 -i 15 -a 0 -x {1.0 5.0 14 ------- null}
+ -t 1.12208 -s 2 -d 3 -p cbr -e 1000 -c 0 -i 15 -a 0 -x {1.0 5.0 14 ------- null}
- -t 1.12208 -s 2 -d 3 -p cbr -e 1000 -c 0 -i 15 -a 0 -x {1.0 5.0 14 ------- null}
h -t 1.12208 -s 2 -d 3 -p cbr -e 1000 -c 0 -i 15 -a 0 -x {1.0 5.0 -1 ------- null}
r -t 1.12416 -s 2 -d 3 -p cbr -e 1000 -c 0 -i 14 -a 0 -x {1.0 5.0 13 ------- null}
h -t 1.12416 -s 3 -d 7 -p cbr -e 1000 -c 0 -i 14 -a 0 -x {1.0 5.0 13 ------- null}
+ -t 1.12616 -s 3 -d 7 -p cbr -e 1000 -c 0 -i 13 -a 0 -x {1.0 5.0 12 ------- null}
- -t 1.12616 -s 3 -d 7 -p cbr -e 1000 -c 0 -i 13 -a 0 -x {1.0 5.0 12 ------- null}
h -t 1.12616 -s 3 -d 7 -p cbr -e 1000 -c 0 -i 13 -a 0 -x {1.0 5.0 -1 ------- null}
+ -t 1.128 -s 1 -d 2 -p cbr -e 1000 -c 0 -i 17 -a 0 -x {1.0 5.0 16 ------- null}
- -t 1.128 -s 1 -d 2 -p cbr -e 1000 -c 0 -i 17 -a 0 -x {1.0 5.0 16 ------- null}
h -t 1.128 -s 1 -d 2 -p cbr -e 1000 -c 0 -i 17 -a 0 -x {1.0 5.0 -1 ------- null}
r -t 1.1289752 -s 7 -d 5 -p cbr -e 1000 -c 0 -i 12 -a 0 -x {1.0 5.0 11 ------- null}
r -t 1.13008 -s 1 -d 2 -p cbr -e 1000 -c 0 -i 16 -a 0 -x {1.0 5.0 15 ------- null}
+ -t 1.13008 -s 2 -d 3 -p cbr -e 1000 -c 0 -i 16 -a 0 -x {1.0 5.0 15 ------- null}
- -t 1.13008 -s 2 -d 3 -p cbr -e 1000 -c 0 -i 16 -a 0 -x {1.0 5.0 15 ------- null}
h -t 1.13008 -s 2 -d 3 -p cbr -e 1000 -c 0 -i 16 -a 0 -x {1.0 5.0 -1 ------- null}
r -t 1.13216 -s 2 -d 3 -p cbr -e 1000 -c 0 -i 15 -a 0 -x {1.0 5.0 14 ------- null}
h -t 1.13216 -s 3 -d 7 -p cbr -e 1000 -c 0 -i 15 -a 0 -x {1.0 5.0 14 ------- null}
+ -t 1.13416 -s 3 -d 7 -p cbr -e 1000 -c 0 -i 14 -a 0 -x {1.0 5.0 13 ------- null}
- -t 1.13416 -s 3 -d 7 -p cbr -e 1000 -c 0 -i 14 -a 0 -x {1.0 5.0 13 ------- null}
h -t 1.13416 -s 3 -d 7 -p cbr -e 1000 -c 0 -i 14 -a 0 -x {1.0 5.0 -1 ------- null}
+ -t 1.136 -s 1 -d 2 -p cbr -e 1000 -c 0 -i 18 -a 0 -x {1.0 5.0 17 ------- null}
- -t 1.136 -s 1 -d 2 -p cbr -e 1000 -c 0 -i 18 -a 0 -x {1.0 5.0 17 ------- null}
h -t 1.136 -s 1 -d 2 -p cbr -e 1000 -c 0 -i 18 -a 0 -x {1.0 5.0 -1 ------- null}
r -t 1.1369752 -s 7 -d 5 -p cbr -e 1000 -c 0 -i 13 -a 0 -x {1.0 5.0 12 ------- null}
r -t 1.13808 -s 1 -d 2 -p cbr -e 1000 -c 0 -i 17 -a 0 -x {1.0 5.0 16 ------- null}
+ -t 1.13808 -s 2 -d 3 -p cbr -e 1000 -c 0 -i 17 -a 0 -x {1.0 5.0 16 ------- null}
- -t 1.13808 -s 2 -d 3 -p cbr -e 1000 -c 0 -i 17 -a 0 -x {1.0 5.0 16 ------- null}
h -t 1.13808 -s 2 -d 3 -p cbr -e 1000 -c 0 -i 17 -a 0 -x {1.0 5.0 -1 ------- null}
r -t 1.14016 -s 2 -d 3 -p cbr -e 1000 -c 0 -i 16 -a 0 -x {1.0 5.0 15 ------- null}
h -t 1.14016 -s 3 -d 7 -p cbr -e 1000 -c 0 -i 16 -a 0 -x {1.0 5.0 15 ------- null}
+ -t 1.14216 -s 3 -d 7 -p cbr -e 1000 -c 0 -i 15 -a 0 -x {1.0 5.0 14 ------- null}
- -t 1.14216 -s 3 -d 7 -p cbr -e 1000 -c 0 -i 15 -a 0 -x {1.0 5.0 14 ------- null}
h -t 1.14216 -s 3 -d 7 -p cbr -e 1000 -c 0 -i 15 -a 0 -x {1.0 5.0 -1 ------- null}
+ -t 1.144 -s 1 -d 2 -p cbr -e 1000 -c 0 -i 19 -a 0 -x {1.0 5.0 18 ------- null}
- -t 1.144 -s 1 -d 2 -p cbr -e 1000 -c 0 -i 19 -a 0 -x {1.0 5.0 18 ------- null}
h -t 1.144 -s 1 -d 2 -p cbr -e 1000 -c 0 -i 19 -a 0 -x {1.0 5.0 -1 ------- null}
r -t 1.1449752 -s 7 -d 5 -p cbr -e 1000 -c 0 -i 14 -a 0 -x {1.0 5.0 13 ------- null}
r -t 1.14608 -s 1 -d 2 -p cbr -e 1000 -c 0 -i 18 -a 0 -x {1.0 5.0 17 ------- null}
+ -t 1.14608 -s 2 -d 3 -p cbr -e 1000 -c 0 -i 18 -a 0 -x {1.0 5.0 17 ------- null}
- -t 1.14608 -s 2 -d 3 -p cbr -e 1000 -c 0 -i 18 -a 0 -x {1.0 5.0 17 ------- null}
h -t 1.14608 -s 2 -d 3 -p cbr -e 1000 -c 0 -i 18 -a 0 -x {1.0 5.0 -1 ------- null}
r -t 1.14816 -s 2 -d 3 -p cbr -e 1000 -c 0 -i 17 -a 0 -x {1.0 5.0 16 ------- null}
h -t 1.14816 -s 3 -d 7 -p cbr -e 1000 -c 0 -i 17 -a 0 -x {1.0 5.0 16 ------- null}
+ -t 1.15016 -s 3 -d 7 -p cbr -e 1000 -c 0 -i 16 -a 0 -x {1.0 5.0 15 ------- null}
- -t 1.15016 -s 3 -d 7 -p cbr -e 1000 -c 0 -i 16 -a 0 -x {1.0 5.0 15 ------- null}
h -t 1.15016 -s 3 -d 7 -p cbr -e 1000 -c 0 -i 16 -a 0 -x {1.0 5.0 -1 ------- null}
+ -t 1.152 -s 1 -d 2 -p cbr -e 1000 -c 0 -i 20 -a 0 -x {1.0 5.0 19 ------- null}
- -t 1.152 -s 1 -d 2 -p cbr -e 1000 -c 0 -i 20 -a 0 -x {1.0 5.0 19 ------- null}
h -t 1.152 -s 1 -d 2 -p cbr -e 1000 -c 0 -i 20 -a 0 -x {1.0 5.0 -1 ------- null}
r -t 1.1529752 -s 7 -d 5 -p cbr -e 1000 -c 0 -i 15 -a 0 -x {1.0 5.0 14 ------- null}
r -t 1.15408 -s 1 -d 2 -p cbr -e 1000 -c 0 -i 19 -a 0 -x {1.0 5.0 18 ------- null}
+ -t 1.15408 -s 2 -d 3 -p cbr -e 1000 -c 0 -i 19 -a 0 -x {1.0 5.0 18 ------- null}
- -t 1.15408 -s 2 -d 3 -p cbr -e 1000 -c 0 -i 19 -a 0 -x {1.0 5.0 18 ------- null}
h -t 1.15408 -s 2 -d 3 -p cbr -e 1000 -c 0 -i 19 -a 0 -x {1.0 5.0 -1 ------- null}
r -t 1.15616 -s 2 -d 3 -p cbr -e 1000 -c 0 -i 18 -a 0 -x {1.0 5.0 17 ------- null}
h -t 1.15616 -s 3 -d 7 -p cbr -e 1000 -c 0 -i 18 -a 0 -x {1.0 5.0 17 ------- null}
+ -t 1.15816 -s 3 -d 7 -p cbr -e 1000 -c 0 -i 17 -a 0 -x {1.0 5.0 16 ------- null}
- -t 1.15816 -s 3 -d 7 -p cbr -e 1000 -c 0 -i 17 -a 0 -x {1.0 5.0 16 ------- null}
h -t 1.15816 -s 3 -d 7 -p cbr -e 1000 -c 0 -i 17 -a 0 -x {1.0 5.0 -1 ------- null}
+ -t 1.16 -s 1 -d 2 -p cbr -e 1000 -c 0 -i 21 -a 0 -x {1.0 5.0 20 ------- null}
- -t 1.16 -s 1 -d 2 -p cbr -e 1000 -c 0 -i 21 -a 0 -x {1.0 5.0 20 ------- null}
h -t 1.16 -s 1 -d 2 -p cbr -e 1000 -c 0 -i 21 -a 0 -x {1.0 5.0 -1 ------- null}
r -t 1.1609752 -s 7 -d 5 -p cbr -e 1000 -c 0 -i 16 -a 0 -x {1.0 5.0 15 ------- null}
r -t 1.16208 -s 1 -d 2 -p cbr -e 1000 -c 0 -i 20 -a 0 -x {1.0 5.0 19 ------- null}
+ -t 1.16208 -s 2 -d 3 -p cbr -e 1000 -c 0 -i 20 -a 0 -x {1.0 5.0 19 ------- null}
- -t 1.16208 -s 2 -d 3 -p cbr -e 1000 -c 0 -i 20 -a 0 -x {1.0 5.0 19 ------- null}
h -t 1.16208 -s 2 -d 3 -p cbr -e 1000 -c 0 -i 20 -a 0 -x {1.0 5.0 -1 ------- null}
r -t 1.16416 -s 2 -d 3 -p cbr -e 1000 -c 0 -i 19 -a 0 -x {1.0 5.0 18 ------- null}
h -t 1.16416 -s 3 -d 7 -p cbr -e 1000 -c 0 -i 19 -a 0 -x {1.0 5.0 18 ------- null}
+ -t 1.16616 -s 3 -d 7 -p cbr -e 1000 -c 0 -i 18 -a 0 -x {1.0 5.0 17 ------- null}
- -t 1.16616 -s 3 -d 7 -p cbr -e 1000 -c 0 -i 18 -a 0 -x {1.0 5.0 17 ------- null}
h -t 1.16616 -s 3 -d 7 -p cbr -e 1000 -c 0 -i 18 -a 0 -x {1.0 5.0 -1 ------- null}
+ -t 1.168 -s 1 -d 2 -p cbr -e 1000 -c 0 -i 22 -a 0 -x {1.0 5.0 21 ------- null}
- -t 1.168 -s 1 -d 2 -p cbr -e 1000 -c 0 -i 22 -a 0 -x {1.0 5.0 21 ------- null}
h -t 1.168 -s 1 -d 2 -p cbr -e 1000 -c 0 -i 22 -a 0 -x {1.0 5.0 -1 ------- null}
r -t 1.1689752 -s 7 -d 5 -p cbr -e 1000 -c 0 -i 17 -a 0 -x {1.0 5.0 16 ------- null}
r -t 1.17008 -s 1 -d 2 -p cbr -e 1000 -c 0 -i 21 -a 0 -x {1.0 5.0 20 ------- null}
+ -t 1.17008 -s 2 -d 3 -p cbr -e 1000 -c 0 -i 21 -a 0 -x {1.0 5.0 20 ------- null}
- -t 1.17008 -s 2 -d 3 -p cbr -e 1000 -c 0 -i 21 -a 0 -x {1.0 5.0 20 ------- null}
h -t 1.17008 -s 2 -d 3 -p cbr -e 1000 -c 0 -i 21 -a 0 -x {1.0 5.0 -1 ------- null}
r -t 1.17216 -s 2 -d 3 -p cbr -e 1000 -c 0 -i 20 -a 0 -x {1.0 5.0 19 ------- null}
h -t 1.17216 -s 3 -d 7 -p cbr -e 1000 -c 0 -i 20 -a 0 -x {1.0 5.0 19 ------- null}
+ -t 1.17416 -s 3 -d 7 -p cbr -e 1000 -c 0 -i 19 -a 0 -x {1.0 5.0 18 ------- null}
- -t 1.17416 -s 3 -d 7 -p cbr -e 1000 -c 0 -i 19 -a 0 -x {1.0 5.0 18 ------- null}
h -t 1.17416 -s 3 -d 7 -p cbr -e 1000 -c 0 -i 19 -a 0 -x {1.0 5.0 -1 ------- null}
+ -t 1.176 -s 1 -d 2 -p cbr -e 1000 -c 0 -i 23 -a 0 -x {1.0 5.0 22 ------- null}
- -t 1.176 -s 1 -d 2 -p cbr -e 1000 -c 0 -i 23 -a 0 -x {1.0 5.0 22 ------- null}
h -t 1.176 -s 1 -d 2 -p cbr -e 1000 -c 0 -i 23 -a 0 -x {1.0 5.0 -1 ------- null}
r -t 1.1769752 -s 7 -d 5 -p cbr -e 1000 -c 0 -i 18 -a 0 -x {1.0 5.0 17 ------- null}
r -t 1.17808 -s 1 -d 2 -p cbr -e 1000 -c 0 -i 22 -a 0 -x {1.0 5.0 21 ------- null}
+ -t 1.17808 -s 2 -d 3 -p cbr -e 1000 -c 0 -i 22 -a 0 -x {1.0 5.0 21 ------- null}
- -t 1.17808 -s 2 -d 3 -p cbr -e 1000 -c 0 -i 22 -a 0 -x {1.0 5.0 21 ------- null}
h -t 1.17808 -s 2 -d 3 -p cbr -e 1000 -c 0 -i 22 -a 0 -x {1.0 5.0 -1 ------- null}
r -t 1.18016 -s 2 -d 3 -p cbr -e 1000 -c 0 -i 21 -a 0 -x {1.0 5.0 20 ------- null}
h -t 1.18016 -s 3 -d 7 -p cbr -e 1000 -c 0 -i 21 -a 0 -x {1.0 5.0 20 ------- null}
+ -t 1.18216 -s 3 -d 7 -p cbr -e 1000 -c 0 -i 20 -a 0 -x {1.0 5.0 19 ------- null}
- -t 1.18216 -s 3 -d 7 -p cbr -e 1000 -c 0 -i 20 -a 0 -x {1.0 5.0 19 ------- null}
h -t 1.18216 -s 3 -d 7 -p cbr -e 1000 -c 0 -i 20 -a 0 -x {1.0 5.0 -1 ------- null}
+ -t 1.184 -s 1 -d 2 -p cbr -e 1000 -c 0 -i 24 -a 0 -x {1.0 5.0 23 ------- null}
- -t 1.184 -s 1 -d 2 -p cbr -e 1000 -c 0 -i 24 -a 0 -x {1.0 5.0 23 ------- null}
h -t 1.184 -s 1 -d 2 -p cbr -e 1000 -c 0 -i 24 -a 0 -x {1.0 5.0 -1 ------- null}
r -t 1.1849752 -s 7 -d 5 -p cbr -e 1000 -c 0 -i 19 -a 0 -x {1.0 5.0 18 ------- null}
r -t 1.18608 -s 1 -d 2 -p cbr -e 1000 -c 0 -i 23 -a 0 -x {1.0 5.0 22 ------- null}
+ -t 1.18608 -s 2 -d 3 -p cbr -e 1000 -c 0 -i 23 -a 0 -x {1.0 5.0 22 ------- null}
- -t 1.18608 -s 2 -d 3 -p cbr -e 1000 -c 0 -i 23 -a 0 -x {1.0 5.0 22 ------- null}
h -t 1.18608 -s 2 -d 3 -p cbr -e 1000 -c 0 -i 23 -a 0 -x {1.0 5.0 -1 ------- null}
r -t 1.18816 -s 2 -d 3 -p cbr -e 1000 -c 0 -i 22 -a 0 -x {1.0 5.0 21 ------- null}
h -t 1.18816 -s 3 -d 7 -p cbr -e 1000 -c 0 -i 22 -a 0 -x {1.0 5.0 21 ------- null}
+ -t 1.19016 -s 3 -d 7 -p cbr -e 1000 -c 0 -i 21 -a 0 -x {1.0 5.0 20 ------- null}
- -t 1.19016 -s 3 -d 7 -p cbr -e 1000 -c 0 -i 21 -a 0 -x {1.0 5.0 20 ------- null}
h -t 1.19016 -s 3 -d 7 -p cbr -e 1000 -c 0 -i 21 -a 0 -x {1.0 5.0 -1 ------- null}
+ -t 1.192 -s 1 -d 2 -p cbr -e 1000 -c 0 -i 25 -a 0 -x {1.0 5.0 24 ------- null}
- -t 1.192 -s 1 -d 2 -p cbr -e 1000 -c 0 -i 25 -a 0 -x {1.0 5.0 24 ------- null}
h -t 1.192 -s 1 -d 2 -p cbr -e 1000 -c 0 -i 25 -a 0 -x {1.0 5.0 -1 ------- null}
r -t 1.1929752 -s 7 -d 5 -p cbr -e 1000 -c 0 -i 20 -a 0 -x {1.0 5.0 19 ------- null}
r -t 1.19408 -s 1 -d 2 -p cbr -e 1000 -c 0 -i 24 -a 0 -x {1.0 5.0 23 ------- null}
+ -t 1.19408 -s 2 -d 3 -p cbr -e 1000 -c 0 -i 24 -a 0 -x {1.0 5.0 23 ------- null}
- -t 1.19408 -s 2 -d 3 -p cbr -e 1000 -c 0 -i 24 -a 0 -x {1.0 5.0 23 ------- null}
h -t 1.19408 -s 2 -d 3 -p cbr -e 1000 -c 0 -i 24 -a 0 -x {1.0 5.0 -1 ------- null}
r -t 1.19616 -s 2 -d 3 -p cbr -e 1000 -c 0 -i 23 -a 0 -x {1.0 5.0 22 ------- null}
h -t 1.19616 -s 3 -d 7 -p cbr -e 1000 -c 0 -i 23 -a 0 -x {1.0 5.0 22 ------- null}
+ -t 1.19816 -s 3 -d 7 -p cbr -e 1000 -c 0 -i 22 -a 0 -x {1.0 5.0 21 ------- null}
- -t 1.19816 -s 3 -d 7 -p cbr -e 1000 -c 0 -i 22 -a 0 -x {1.0 5.0 21 ------- null}
h -t 1.19816 -s 3 -d 7 -p cbr -e 1000 -c 0 -i 22 -a 0 -x {1.0 5.0 -1 ------- null}
+ -t 1.2 -s 1 -d 2 -p cbr -e 1000 -c 0 -i 26 -a 0 -x {1.0 5.0 25 ------- null}
- -t 1.2 -s 1 -d 2 -p cbr -e 1000 -c 0 -i 26 -a 0 -x {1.0 5.0 25 ------- null}
h -t 1.2 -s 1 -d 2 -p cbr -e 1000 -c 0 -i 26 -a 0 -x {1.0 5.0 -1 ------- null}
r -t 1.2009752 -s 7 -d 5 -p cbr -e 1000 -c 0 -i 21 -a 0 -x {1.0 5.0 20 ------- null}
r -t 1.20208 -s 1 -d 2 -p cbr -e 1000 -c 0 -i 25 -a 0 -x {1.0 5.0 24 ------- null}
+ -t 1.20208 -s 2 -d 3 -p cbr -e 1000 -c 0 -i 25 -a 0 -x {1.0 5.0 24 ------- null}
- -t 1.20208 -s 2 -d 3 -p cbr -e 1000 -c 0 -i 25 -a 0 -x {1.0 5.0 24 ------- null}
h -t 1.20208 -s 2 -d 3 -p cbr -e 1000 -c 0 -i 25 -a 0 -x {1.0 5.0 -1 ------- null}
r -t 1.20416 -s 2 -d 3 -p cbr -e 1000 -c 0 -i 24 -a 0 -x {1.0 5.0 23 ------- null}
h -t 1.20416 -s 3 -d 7 -p cbr -e 1000 -c 0 -i 24 -a 0 -x {1.0 5.0 23 ------- null}
+ -t 1.20616 -s 3 -d 7 -p cbr -e 1000 -c 0 -i 23 -a 0 -x {1.0 5.0 22 ------- null}
- -t 1.20616 -s 3 -d 7 -p cbr -e 1000 -c 0 -i 23 -a 0 -x {1.0 5.0 22 ------- null}
h -t 1.20616 -s 3 -d 7 -p cbr -e 1000 -c 0 -i 23 -a 0 -x {1.0 5.0 -1 ------- null}
+ -t 1.208 -s 1 -d 2 -p cbr -e 1000 -c 0 -i 27 -a 0 -x {1.0 5.0 26 ------- null}
- -t 1.208 -s 1 -d 2 -p cbr -e 1000 -c 0 -i 27 -a 0 -x {1.0 5.0 26 ------- null}
h -t 1.208 -s 1 -d 2 -p cbr -e 1000 -c 0 -i 27 -a 0 -x {1.0 5.0 -1 ------- null}
r -t 1.2089752 -s 7 -d 5 -p cbr -e 1000 -c 0 -i 22 -a 0 -x {1.0 5.0 21 ------- null}
r -t 1.21008 -s 1 -d 2 -p cbr -e 1000 -c 0 -i 26 -a 0 -x {1.0 5.0 25 ------- null}
+ -t 1.21008 -s 2 -d 3 -p cbr -e 1000 -c 0 -i 26 -a 0 -x {1.0 5.0 25 ------- null}
- -t 1.21008 -s 2 -d 3 -p cbr -e 1000 -c 0 -i 26 -a 0 -x {1.0 5.0 25 ------- null}
h -t 1.21008 -s 2 -d 3 -p cbr -e 1000 -c 0 -i 26 -a 0 -x {1.0 5.0 -1 ------- null}
r -t 1.21216 -s 2 -d 3 -p cbr -e 1000 -c 0 -i 25 -a 0 -x {1.0 5.0 24 ------- null}
h -t 1.21216 -s 3 -d 7 -p cbr -e 1000 -c 0 -i 25 -a 0 -x {1.0 5.0 24 ------- null}
+ -t 1.21416 -s 3 -d 7 -p cbr -e 1000 -c 0 -i 24 -a 0 -x {1.0 5.0 23 ------- null}
- -t 1.21416 -s 3 -d 7 -p cbr -e 1000 -c 0 -i 24 -a 0 -x {1.0 5.0 23 ------- null}
h -t 1.21416 -s 3 -d 7 -p cbr -e 1000 -c 0 -i 24 -a 0 -x {1.0 5.0 -1 ------- null}
+ -t 1.216 -s 1 -d 2 -p cbr -e 1000 -c 0 -i 28 -a 0 -x {1.0 5.0 27 ------- null}
- -t 1.216 -s 1 -d 2 -p cbr -e 1000 -c 0 -i 28 -a 0 -x {1.0 5.0 27 ------- null}
h -t 1.216 -s 1 -d 2 -p cbr -e 1000 -c 0 -i 28 -a 0 -x {1.0 5.0 -1 ------- null}
r -t 1.2169752 -s 7 -d 5 -p cbr -e 1000 -c 0 -i 23 -a 0 -x {1.0 5.0 22 ------- null}
r -t 1.21808 -s 1 -d 2 -p cbr -e 1000 -c 0 -i 27 -a 0 -x {1.0 5.0 26 ------- null}
+ -t 1.21808 -s 2 -d 3 -p cbr -e 1000 -c 0 -i 27 -a 0 -x {1.0 5.0 26 ------- null}
- -t 1.21808 -s 2 -d 3 -p cbr -e 1000 -c 0 -i 27 -a 0 -x {1.0 5.0 26 ------- null}
h -t 1.21808 -s 2 -d 3 -p cbr -e 1000 -c 0 -i 27 -a 0 -x {1.0 5.0 -1 ------- null}
r -t 1.22016 -s 2 -d 3 -p cbr -e 1000 -c 0 -i 26 -a 0 -x {1.0 5.0 25 ------- null}
h -t 1.22016 -s 3 -d 7 -p cbr -e 1000 -c 0 -i 26 -a 0 -x {1.0 5.0 25 ------- null}
+ -t 1.22216 -s 3 -d 7 -p cbr -e 1000 -c 0 -i 25 -a 0 -x {1.0 5.0 24 ------- null}
- -t 1.22216 -s 3 -d 7 -p cbr -e 1000 -c 0 -i 25 -a 0 -x {1.0 5.0 24 ------- null}
h -t 1.22216 -s 3 -d 7 -p cbr -e 1000 -c 0 -i 25 -a 0 -x {1.0 5.0 -1 ------- null}
+ -t 1.224 -s 1 -d 2 -p cbr -e 1000 -c 0 -i 29 -a 0 -x {1.0 5.0 28 ------- null}
- -t 1.224 -s 1 -d 2 -p cbr -e 1000 -c 0 -i 29 -a 0 -x {1.0 5.0 28 ------- null}
h -t 1.224 -s 1 -d 2 -p cbr -e 1000 -c 0 -i 29 -a 0 -x {1.0 5.0 -1 ------- null}
r -t 1.2249752 -s 7 -d 5 -p cbr -e 1000 -c 0 -i 24 -a 0 -x {1.0 5.0 23 ------- null}
r -t 1.22608 -s 1 -d 2 -p cbr -e 1000 -c 0 -i 28 -a 0 -x {1.0 5.0 27 ------- null}
+ -t 1.22608 -s 2 -d 3 -p cbr -e 1000 -c 0 -i 28 -a 0 -x {1.0 5.0 27 ------- null}
- -t 1.22608 -s 2 -d 3 -p cbr -e 1000 -c 0 -i 28 -a 0 -x {1.0 5.0 27 ------- null}
h -t 1.22608 -s 2 -d 3 -p cbr -e 1000 -c 0 -i 28 -a 0 -x {1.0 5.0 -1 ------- null}
r -t 1.22816 -s 2 -d 3 -p cbr -e 1000 -c 0 -i 27 -a 0 -x {1.0 5.0 26 ------- null}
h -t 1.22816 -s 3 -d 7 -p cbr -e 1000 -c 0 -i 27 -a 0 -x {1.0 5.0 26 ------- null}
+ -t 1.23016 -s 3 -d 7 -p cbr -e 1000 -c 0 -i 26 -a 0 -x {1.0 5.0 25 ------- null}
- -t 1.23016 -s 3 -d 7 -p cbr -e 1000 -c 0 -i 26 -a 0 -x {1.0 5.0 25 ------- null}
h -t 1.23016 -s 3 -d 7 -p cbr -e 1000 -c 0 -i 26 -a 0 -x {1.0 5.0 -1 ------- null}