+ 1 0 2 tcp 40 ------- 0 0.0 3.0 0 0
- 1 0 2 tcp 40 ------- 0 0.0 3.0 0 0
+ 1 1 2 cbr 1000 ------- 0 1.0 3.1 0 1
- 1 1 2 cbr 1000 ------- 0 1.0 3.1 0 1
+ 1.008 1 2 cbr 1000 ------- 0 1.0 3.1 1 2
- 1.008 1 2 cbr 1000 ------- 0 1.0 3.1 1 2
r 1.010003 0 2 tcp 40 ------- 0 0.0 3.0 0 0
+ 1.010003 2 3 tcp 40 ------- 0 0.0 3.0 0 0
- 1.010003 2 3 tcp 40 ------- 0 0.0 3.0 0 0
r 1.01008 1 2 cbr 1000 ------- 0 1.0 3.1 0 1
+ 1.01008 2 3 cbr 1000 ------- 0 1.0 3.1 0 1
- 1.01008 2 3 cbr 1000 ------- 0 1.0 3.1 0 1
+ 1.016 1 2 cbr 1000 ------- 0 1.0 3.1 2 3
- 1.016 1 2 cbr 1000 ------- 0 1.0 3.1 2 3
r 1.01808 1 2 cbr 1000 ------- 0 1.0 3.1 1 2
+ 1.01808 2 3 cbr 1000 ------- 0 1.0 3.1 1 2
- 1.01808 2 3 cbr 1000 ------- 0 1.0 3.1 1 2
r 1.020006 2 3 tcp 40 ------- 0 0.0 3.0 0 0
+ 1.020006 3 2 ack 40 ------- 0 3.0 0.0 0 4
- 1.020006 3 2 ack 40 ------- 0 3.0 0.0 0 4
r 1.02016 2 3 cbr 1000 ------- 0 1.0 3.1 0 1
+ 1.024 1 2 cbr 1000 ------- 0 1.0 3.1 3 5
- 1.024 1 2 cbr 1000 ------- 0 1.0 3.1 3 5
r 1.02608 1 2 cbr 1000 ------- 0 1.0 3.1 2 3
+ 1.02608 2 3 cbr 1000 ------- 0 1.0 3.1 2 3
- 1.02608 2 3 cbr 1000 ------- 0 1.0 3.1 2 3
r 1.02816 2 3 cbr 1000 ------- 0 1.0 3.1 1 2
r 1.03001 3 2 ack 40 ------- 0 3.0 0.0 0 4
+ 1.03001 2 0 ack 40 ------- 0 3.0 0.0 0 4
- 1.03001 2 0 ack 40 ------- 0 3.0 0.0 0 4
+ 1.032 1 2 cbr 1000 ------- 0 1.0 3.1 4 6
- 1.032 1 2 cbr 1000 ------- 0 1.0 3.1 4 6
r 1.03408 1 2 cbr 1000 ------- 0 1.0 3.1 3 5
+ 1.03408 2 3 cbr 1000 ------- 0 1.0 3.1 3 5
- 1.03408 2 3 cbr 1000 ------- 0 1.0 3.1 3 5
r 1.03616 2 3 cbr 1000 ------- 0 1.0 3.1 2 3
+ 1.04 1 2 cbr 1000 ------- 0 1.0 3.1 5 7
- 1.04 1 2 cbr 1000 ------- 0 1.0 3.1 5 7
r 1.040013 2 0 ack 40 ------- 0 3.0 0.0 0 4
+ 1.040013 0 2 tcp 1540 ------- 0 0.0 3.0 1 8
- 1.040013 0 2 tcp 1540 ------- 0 0.0 3.0 1 8
+ 1.040013 0 2 tcp 1540 ------- 0 0.0 3.0 2 9
- 1.040136 0 2 tcp 1540 ------- 0 0.0 3.0 2 9
r 1.04208 1 2 cbr 1000 ------- 0 1.0 3.1 4 6
+ 1.04208 2 3 cbr 1000 ------- 0 1.0 3.1 4 6
- 1.04208 2 3 cbr 1000 ------- 0 1.0 3.1 4 6
r 1.04416 2 3 cbr 1000 ------- 0 1.0 3.1 3 5
+ 1.048 1 2 cbr 1000 ------- 0 1.0 3.1 6 10
- 1.048 1 2 cbr 1000 ------- 0 1.0 3.1 6 10
r 1.05008 1 2 cbr 1000 ------- 0 1.0 3.1 5 7
+ 1.05008 2 3 cbr 1000 ------- 0 1.0 3.1 5 7
- 1.05008 2 3 cbr 1000 ------- 0 1.0 3.1 5 7
r 1.050136 0 2 tcp 1540 ------- 0 0.0 3.0 1 8
+ 1.050136 2 3 tcp 1540 ------- 0 0.0 3.0 1 8
- 1.05016 2 3 tcp 1540 ------- 0 0.0 3.0 1 8
r 1.050259 0 2 tcp 1540 ------- 0 0.0 3.0 2 9
+ 1.050259 2 3 tcp 1540 ------- 0 0.0 3.0 2 9
- 1.050283 2 3 tcp 1540 ------- 0 0.0 3.0 2 9
r 1.05216 2 3 cbr 1000 ------- 0 1.0 3.1 4 6
+ 1.056 1 2 cbr 1000 ------- 0 1.0 3.1 7 11
- 1.056 1 2 cbr 1000 ------- 0 1.0 3.1 7 11
r 1.05808 1 2 cbr 1000 ------- 0 1.0 3.1 6 10
+ 1.05808 2 3 cbr 1000 ------- 0 1.0 3.1 6 10
- 1.05808 2 3 cbr 1000 ------- 0 1.0 3.1 6 10
r 1.06016 2 3 cbr 1000 ------- 0 1.0 3.1 5 7
r 1.060283 2 3 tcp 1540 ------- 0 0.0 3.0 1 8
+ 1.060283 3 2 ack 40 ------- 0 3.0 0.0 1 12
- 1.060283 3 2 ack 40 ------- 0 3.0 0.0 1 12
r 1.060406 2 3 tcp 1540 ------- 0 0.0 3.0 2 9
+ 1.060406 3 2 ack 40 ------- 0 3.0 0.0 2 13
- 1.060406 3 2 ack 40 ------- 0 3.0 0.0 2 13
+ 1.064 1 2 cbr 1000 ------- 0 1.0 3.1 8 14
- 1.064 1 2 cbr 1000 ------- 0 1.0 3.1 8 14
r 1.06608 1 2 cbr 1000 ------- 0 1.0 3.1 7 11
+ 1.06608 2 3 cbr 1000 ------- 0 1.0 3.1 7 11
- 1.06608 2 3 cbr 1000 ------- 0 1.0 3.1 7 11
r 1.06816 2 3 cbr 1000 ------- 0 1.0 3.1 6 10
r 1.070286 3 2 ack 40 ------- 0 3.0 0.0 1 12
+ 1.070286 2 0 ack 40 ------- 0 3.0 0.0 1 12
- 1.070286 2 0 ack 40 ------- 0 3.0 0.0 1 12
r 1.07041 3 2 ack 40 ------- 0 3.0 0.0 2 13
+ 1.07041 2 0 ack 40 ------- 0 3.0 0.0 2 13
- 1.07041 2 0 ack 40 ------- 0 3.0 0.0 2 13
+ 1.072 1 2 cbr 1000 ------- 0 1.0 3.1 9 15
- 1.072 1 2 cbr 1000 ------- 0 1.0 3.1 9 15
r 1.07408 1 2 cbr 1000 ------- 0 1.0 3.1 8 14
+ 1.07408 2 3 cbr 1000 ------- 0 1.0 3.1 8 14
- 1.07408 2 3 cbr 1000 ------- 0 1.0 3.1 8 14
r 1.07616 2 3 cbr 1000 ------- 0 1.0 3.1 7 11
+ 1.08 1 2 cbr 1000 ------- 0 1.0 3.1 10 16
- 1.08 1 2 cbr 1000 ------- 0 1.0 3.1 10 16
r 1.08029 2 0 ack 40 ------- 0 3.0 0.0 1 12
+ 1.08029 0 2 tcp 1540 ------- 0 0.0 3.0 3 17
- 1.08029 0 2 tcp 1540 ------- 0 0.0 3.0 3 17
+ 1.08029 0 2 tcp 1540 ------- 0 0.0 3.0 4 18
r 1.080413 2 0 ack 40 ------- 0 3.0 0.0 2 13
+ 1.080413 0 2 tcp 1540 ------- 0 0.0 3.0 5 19
+ 1.080413 0 2 tcp 1540 ------- 0 0.0 3.0 6 20
- 1.080413 0 2 tcp 1540 ------- 0 0.0 3.0 4 18
- 1.080536 0 2 tcp 1540 ------- 0 0.0 3.0 5 19
- 1.080659 0 2 tcp 1540 ------- 0 0.0 3.0 6 20
r 1.08208 1 2 cbr 1000 ------- 0 1.0 3.1 9 15
+ 1.08208 2 3 cbr 1000 ------- 0 1.0 3.1 9 15
- 1.08208 2 3 cbr 1000 ------- 0 1.0 3.1 9 15
r 1.08416 2 3 cbr 1000 ------- 0 1.0 3.1 8 14
+ 1.088 1 2 cbr 1000 ------- 0 1.0 3.1 11 21
- 1.088 1 2 cbr 1000 ------- 0 1.0 3.1 11 21
r 1.09008 1 2 cbr 1000 ------- 0 1.0 3.1 10 16
+ 1.09008 2 3 cbr 1000 ------- 0 1.0 3.1 10 16
- 1.09008 2 3 cbr 1000 ------- 0 1.0 3.1 10 16
r 1.090413 0 2 tcp 1540 ------- 0 0.0 3.0 3 17
+ 1.090413 2 3 tcp 1540 ------- 0 0.0 3.0 3 17
- 1.090413 2 3 tcp 1540 ------- 0 0.0 3.0 3 17
r 1.090536 0 2 tcp 1540 ------- 0 0.0 3.0 4 18
+ 1.090536 2 3 tcp 1540 ------- 0 0.0 3.0 4 18
- 1.090536 2 3 tcp 1540 ------- 0 0.0 3.0 4 18
r 1.090659 0 2 tcp 1540 ------- 0 0.0 3.0 5 19
+ 1.090659 2 3 tcp 1540 ------- 0 0.0 3.0 5 19
- 1.090659 2 3 tcp 1540 ------- 0 0.0 3.0 5 19
r 1.090782 0 2 tcp 1540 ------- 0 0.0 3.0 6 20
+ 1.090782 2 3 tcp 1540 ------- 0 0.0 3.0 6 20
- 1.090782 2 3 tcp 1540 ------- 0 0.0 3.0 6 20
r 1.09216 2 3 cbr 1000 ------- 0 1.0 3.1 9 15
+ 1.096 1 2 cbr 1000 ------- 0 1.0 3.1 12 22
- 1.096 1 2 cbr 1000 ------- 0 1.0 3.1 12 22
r 1.09808 1 2 cbr 1000 ------- 0 1.0 3.1 11 21
+ 1.09808 2 3 cbr 1000 ------- 0 1.0 3.1 11 21
- 1.09808 2 3 cbr 1000 ------- 0 1.0 3.1 11 21
r 1.10016 2 3 cbr 1000 ------- 0 1.0 3.1 10 16
r 1.100536 2 3 tcp 1540 ------- 0 0.0 3.0 3 17
+ 1.100536 3 2 ack 40 ------- 0 3.0 0.0 3 23
- 1.100536 3 2 ack 40 ------- 0 3.0 0.0 3 23
r 1.100659 2 3 tcp 1540 ------- 0 0.0 3.0 4 18
+ 1.100659 3 2 ack 40 ------- 0 3.0 0.0 4 24
- 1.100659 3 2 ack 40 ------- 0 3.0 0.0 4 24
r 1.100782 2 3 tcp 1540 ------- 0 0.0 3.0 5 19
+ 1.100782 3 2 ack 40 ------- 0 3.0 0.0 5 25
- 1.100782 3 2 ack 40 ------- 0 3.0 0.0 5 25
r 1.100906 2 3 tcp 1540 ------- 0 0.0 3.0 6 20
+ 1.100906 3 2 ack 40 ------- 0 3.0 0.0 6 26
- 1.100906 3 2 ack 40 ------- 0 3.0 0.0 6 26
+ 1.104 1 2 cbr 1000 ------- 0 1.0 3.1 13 27
- 1.104 1 2 cbr 1000 ------- 0 1.0 3.1 13 27
r 1.10608 1 2 cbr 1000 ------- 0 1.0 3.1 12 22
+ 1.10608 2 3 cbr 1000 ------- 0 1.0 3.1 12 22
- 1.10608 2 3 cbr 1000 ------- 0 1.0 3.1 12 22
r 1.10816 2 3 cbr 1000 ------- 0 1.0 3.1 11 21
r 1.110539 3 2 ack 40 ------- 0 3.0 0.0 3 23
+ 1.110539 2 0 ack 40 ------- 0 3.0 0.0 3 23
- 1.110539 2 0 ack 40 ------- 0 3.0 0.0 3 23
r 1.110662 3 2 ack 40 ------- 0 3.0 0.0 4 24
+ 1.110662 2 0 ack 40 ------- 0 3.0 0.0 4 24
- 1.110662 2 0 ack 40 ------- 0 3.0 0.0 4 24
r 1.110786 3 2 ack 40 ------- 0 3.0 0.0 5 25
+ 1.110786 2 0 ack 40 ------- 0 3.0 0.0 5 25
- 1.110786 2 0 ack 40 ------- 0 3.0 0.0 5 25
r 1.110909 3 2 ack 40 ------- 0 3.0 0.0 6 26
+ 1.110909 2 0 ack 40 ------- 0 3.0 0.0 6 26
- 1.110909 2 0 ack 40 ------- 0 3.0 0.0 6 26
+ 1.112 1 2 cbr 1000 ------- 0 1.0 3.1 14 28
- 1.112 1 2 cbr 1000 ------- 0 1.0 3.1 14 28
r 1.11408 1 2 cbr 1000 ------- 0 1.0 3.1 13 27
+ 1.11408 2 3 cbr 1000 ------- 0 1.0 3.1 13 27
- 1.11408 2 3 cbr 1000 ------- 0 1.0 3.1 13 27
r 1.11616 2 3 cbr 1000 ------- 0 1.0 3.1 12 22
+ 1.12 1 2 cbr 1000 ------- 0 1.0 3.1 15 29
- 1.12 1 2 cbr 1000 ------- 0 1.0 3.1 15 29
r 1.120542 2 0 ack 40 ------- 0 3.0 0.0 3 23
+ 1.120542 0 2 tcp 1540 ------- 0 0.0 3.0 7 30
- 1.120542 0 2 tcp 1540 ------- 0 0.0 3.0 7 30
+ 1.120542 0 2 tcp 1540 ------- 0 0.0 3.0 8 31
r 1.120666 2 0 ack 40 ------- 0 3.0 0.0 4 24
+ 1.120666 0 2 tcp 1540 ------- 0 0.0 3.0 9 32
+ 1.120666 0 2 tcp 1540 ------- 0 0.0 3.0 10 33
- 1.120666 0 2 tcp 1540 ------- 0 0.0 3.0 8 31
r 1.120789 2 0 ack 40 ------- 0 3.0 0.0 5 25
+ 1.120789 0 2 tcp 1540 ------- 0 0.0 3.0 11 34
+ 1.120789 0 2 tcp 1540 ------- 0 0.0 3.0 12 35
- 1.120789 0 2 tcp 1540 ------- 0 0.0 3.0 9 32
r 1.120912 2 0 ack 40 ------- 0 3.0 0.0 6 26
+ 1.120912 0 2 tcp 1540 ------- 0 0.0 3.0 13 36
+ 1.120912 0 2 tcp 1540 ------- 0 0.0 3.0 14 37
- 1.120912 0 2 tcp 1540 ------- 0 0.0 3.0 10 33
- 1.121035 0 2 tcp 1540 ------- 0 0.0 3.0 11 34
- 1.121158 0 2 tcp 1540 ------- 0 0.0 3.0 12 35
- 1.121282 0 2 tcp 1540 ------- 0 0.0 3.0 13 36
- 1.121405 0 2 tcp 1540 ------- 0 0.0 3.0 14 37
r 1.12208 1 2 cbr 1000 ------- 0 1.0 3.1 14 28
+ 1.12208 2 3 cbr 1000 ------- 0 1.0 3.1 14 28
- 1.12208 2 3 cbr 1000 ------- 0 1.0 3.1 14 28
r 1.12416 2 3 cbr 1000 ------- 0 1.0 3.1 13 27
+ 1.128 1 2 cbr 1000 ------- 0 1.0 3.1 16 38
- 1.128 1 2 cbr 1000 ------- 0 1.0 3.1 16 38
r 1.13008 1 2 cbr 1000 ------- 0 1.0 3.1 15 29
+ 1.13008 2 3 cbr 1000 ------- 0 1.0 3.1 15 29
- 1.13008 2 3 cbr 1000 ------- 0 1.0 3.1 15 29
r 1.130666 0 2 tcp 1540 ------- 0 0.0 3.0 7 30
+ 1.130666 2 3 tcp 1540 ------- 0 0.0 3.0 7 30
- 1.130666 2 3 tcp 1540 ------- 0 0.0 3.0 7 30
r 1.130789 0 2 tcp 1540 ------- 0 0.0 3.0 8 31
+ 1.130789 2 3 tcp 1540 ------- 0 0.0 3.0 8 31
- 1.130789 2 3 tcp 1540 ------- 0 0.0 3.0 8 31
r 1.130912 0 2 tcp 1540 ------- 0 0.0 3.0 9 32
+ 1.130912 2 3 tcp 1540 ------- 0 0.0 3.0 9 32
- 1.130912 2 3 tcp 1540 ------- 0 0.0 3.0 9 32
r 1.131035 0 2 tcp 1540 ------- 0 0.0 3.0 10 33
+ 1.131035 2 3 tcp 1540 ------- 0 0.0 3.0 10 33
- 1.131035 2 3 tcp 1540 ------- 0 0.0 3.0 10 33
r 1.131158 0 2 tcp 1540 ------- 0 0.0 3.0 11 34
+ 1.131158 2 3 tcp 1540 ------- 0 0.0 3.0 11 34
- 1.131158 2 3 tcp 1540 ------- 0 0.0 3.0 11 34
r 1.131282 0 2 tcp 1540 ------- 0 0.0 3.0 12 35
+ 1.131282 2 3 tcp 1540 ------- 0 0.0 3.0 12 35
- 1.131282 2 3 tcp 1540 ------- 0 0.0 3.0 12 35
r 1.131405 0 2 tcp 1540 ------- 0 0.0 3.0 13 36
+ 1.131405 2 3 tcp 1540 ------- 0 0.0 3.0 13 36
- 1.131405 2 3 tcp 1540 ------- 0 0.0 3.0 13 36
r 1.131528 0 2 tcp 1540 ------- 0 0.0 3.0 14 37
+ 1.131528 2 3 tcp 1540 ------- 0 0.0 3.0 14 37
- 1.131528 2 3 tcp 1540 ------- 0 0.0 3.0 14 37
r 1.13216 2 3 cbr 1000 ------- 0 1.0 3.1 14 28
+ 1.136 1 2 cbr 1000 ------- 0 1.0 3.1 17 39
- 1.136 1 2 cbr 1000 ------- 0 1.0 3.1 17 39
r 1.13808 1 2 cbr 1000 ------- 0 1.0 3.1 16 38
+ 1.13808 2 3 cbr 1000 ------- 0 1.0 3.1 16 38
- 1.13808 2 3 cbr 1000 ------- 0 1.0 3.1 16 38
r 1.14016 2 3 cbr 1000 ------- 0 1.0 3.1 15 29
r 1.140789 2 3 tcp 1540 ------- 0 0.0 3.0 7 30
+ 1.140789 3 2 ack 40 ------- 0 3.0 0.0 7 40
- 1.140789 3 2 ack 40 ------- 0 3.0 0.0 7 40
r 1.140912 2 3 tcp 1540 ------- 0 0.0 3.0 8 31
+ 1.140912 3 2 ack 40 ------- 0 3.0 0.0 8 41
- 1.140912 3 2 ack 40 ------- 0 3.0 0.0 8 41
r 1.141035 2 3 tcp 1540 ------- 0 0.0 3.0 9 32
+ 1.141035 3 2 ack 40 ------- 0 3.0 0.0 9 42
- 1.141035 3 2 ack 40 ------- 0 3.0 0.0 9 42
r 1.141158 2 3 tcp 1540 ------- 0 0.0 3.0 10 33
+ 1.141158 3 2 ack 40 ------- 0 3.0 0.0 10 43
- 1.141158 3 2 ack 40 ------- 0 3.0 0.0 10 43
r 1.141282 2 3 tcp 1540 ------- 0 0.0 3.0 11 34
+ 1.141282 3 2 ack 40 ------- 0 3.0 0.0 11 44
- 1.141282 3 2 ack 40 ------- 0 3.0 0.0 11 44
r 1.141405 2 3 tcp 1540 ------- 0 0.0 3.0 12 35
+ 1.141405 3 2 ack 40 ------- 0 3.0 0.0 12 45
- 1.141405 3 2 ack 40 ------- 0 3.0 0.0 12 45
r 1.141528 2 3 tcp 1540 ------- 0 0.0 3.0 13 36
+ 1.141528 3 2 ack 40 ------- 0 3.0 0.0 13 46
- 1.141528 3 2 ack 40 ------- 0 3.0 0.0 13 46
r 1.141651 2 3 tcp 1540 ------- 0 0.0 3.0 14 37
+ 1.141651 3 2 ack 40 ------- 0 3.0 0.0 14 47
- 1.141651 3 2 ack 40 ------- 0 3.0 0.0 14 47
+ 1.144 1 2 cbr 1000 ------- 0 1.0 3.1 18 48
- 1.144 1 2 cbr 1000 ------- 0 1.0 3.1 18 48
r 1.14608 1 2 cbr 1000 ------- 0 1.0 3.1 17 39
+ 1.14608 2 3 cbr 1000 ------- 0 1.0 3.1 17 39
- 1.14608 2 3 cbr 1000 ------- 0 1.0 3.1 17 39
r 1.14816 2 3 cbr 1000 ------- 0 1.0 3.1 16 38
r 1.150792 3 2 ack 40 ------- 0 3.0 0.0 7 40
+ 1.150792 2 0 ack 40 ------- 0 3.0 0.0 7 40
- 1.150792 2 0 ack 40 ------- 0 3.0 0.0 7 40
r 1.150915 3 2 ack 40 ------- 0 3.0 0.0 8 41
+ 1.150915 2 0 ack 40 ------- 0 3.0 0.0 8 41
- 1.150915 2 0 ack 40 ------- 0 3.0 0.0 8 41
r 1.151038 3 2 ack 40 ------- 0 3.0 0.0 9 42
+ 1.151038 2 0 ack 40 ------- 0 3.0 0.0 9 42
- 1.151038 2 0 ack 40 ------- 0 3.0 0.0 9 42
r 1.151162 3 2 ack 40 ------- 0 3.0 0.0 10 43
+ 1.151162 2 0 ack 40 ------- 0 3.0 0.0 10 43
- 1.151162 2 0 ack 40 ------- 0 3.0 0.0 10 43
r 1.151285 3 2 ack 40 ------- 0 3.0 0.0 11 44
+ 1.151285 2 0 ack 40 ------- 0 3.0 0.0 11 44
- 1.151285 2 0 ack 40 ------- 0 3.0 0.0 11 44
r 1.151408 3 2 ack 40 ------- 0 3.0 0.0 12 45
+ 1.151408 2 0 ack 40 ------- 0 3.0 0.0 12 45
- 1.151408 2 0 ack 40 ------- 0 3.0 0.0 12 45
r 1.151531 3 2 ack 40 ------- 0 3.0 0.0 13 46
+ 1.151531 2 0 ack 40 ------- 0 3.0 0.0 13 46
- 1.151531 2 0 ack 40 ------- 0 3.0 0.0 13 46
r 1.151654 3 2 ack 40 ------- 0 3.0 0.0 14 47
+ 1.151654 2 0 ack 40 ------- 0 3.0 0.0 14 47
- 1.151654 2 0 ack 40 ------- 0 3.0 0.0 14 47
+ 1.152 1 2 cbr 1000 ------- 0 1.0 3.1 19 49
- 1.152 1 2 cbr 1000 ------- 0 1.0 3.1 19 49
r 1.15408 1 2 cbr 1000 ------- 0 1.0 3.1 18 48
+ 1.15408 2 3 cbr 1000 ------- 0 1.0 3.1 18 48
- 1.15408 2 3 cbr 1000 ------- 0 1.0 3.1 18 48
r 1.15616 2 3 cbr 1000 ------- 0 1.0 3.1 17 39
+ 1.16 1 2 cbr 1000 ------- 0 1.0 3.1 20 50
- 1.16 1 2 cbr 1000 ------- 0 1.0 3.1 20 50
r 1.160795 2 0 ack 40 ------- 0 3.0 0.0 7 40
+ 1.160795 0 2 tcp 1540 ------- 0 0.0 3.0 15 51
- 1.160795 0 2 tcp 1540 ------- 0 0.0 3.0 15 51
+ 1.160795 0 2 tcp 1540 ------- 0 0.0 3.0 16 52
r 1.160918 2 0 ack 40 ------- 0 3.0 0.0 8 41
+ 1.160918 0 2 tcp 1540 ------- 0 0.0 3.0 17 53
+ 1.160918 0 2 tcp 1540 ------- 0 0.0 3.0 18 54
- 1.160918 0 2 tcp 1540 ------- 0 0.0 3.0 16 52
r 1.161042 2 0 ack 40 ------- 0 3.0 0.0 9 42
+ 1.161042 0 2 tcp 1540 ------- 0 0.0 3.0 19 55
+ 1.161042 0 2 tcp 1540 ------- 0 0.0 3.0 20 56
- 1.161042 0 2 tcp 1540 ------- 0 0.0 3.0 17 53
r 1.161165 2 0 ack 40 ------- 0 3.0 0.0 10 43
+ 1.161165 0 2 tcp 1540 ------- 0 0.0 3.0 21 57
+ 1.161165 0 2 tcp 1540 ------- 0 0.0 3.0 22 58
- 1.161165 0 2 tcp 1540 ------- 0 0.0 3.0 18 54
r 1.161288 2 0 ack 40 ------- 0 3.0 0.0 11 44
+ 1.161288 0 2 tcp 1540 ------- 0 0.0 3.0 23 59
+ 1.161288 0 2 tcp 1540 ------- 0 0.0 3.0 24 60
- 1.161288 0 2 tcp 1540 ------- 0 0.0 3.0 19 55
r 1.161411 2 0 ack 40 ------- 0 3.0 0.0 12 45
+ 1.161411 0 2 tcp 1540 ------- 0 0.0 3.0 25 61
+ 1.161411 0 2 tcp 1540 ------- 0 0.0 3.0 26 62
- 1.161411 0 2 tcp 1540 ------- 0 0.0 3.0 20 56
r 1.161534 2 0 ack 40 ------- 0 3.0 0.0 13 46
+ 1.161534 0 2 tcp 1540 ------- 0 0.0 3.0 27 63
+ 1.161534 0 2 tcp 1540 ------- 0 0.0 3.0 28 64
- 1.161534 0 2 tcp 1540 ------- 0 0.0 3.0 21 57
r 1.161658 2 0 ack 40 ------- 0 3.0 0.0 14 47
+ 1.161658 0 2 tcp 1540 ------- 0 0.0 3.0 29 65
+ 1.161658 0 2 tcp 1540 ------- 0 0.0 3.0 30 66
- 1.161658 0 2 tcp 1540 ------- 0 0.0 3.0 22 58
- 1.161781 0 2 tcp 1540 ------- 0 0.0 3.0 23 59
- 1.161904 0 2 tcp 1540 ------- 0 0.0 3.0 24 60
- 1.162027 0 2 tcp 1540 ------- 0 0.0 3.0 25 61
r 1.16208 1 2 cbr 1000 ------- 0 1.0 3.1 19 49
+ 1.16208 2 3 cbr 1000 ------- 0 1.0 3.1 19 49
- 1.16208 2 3 cbr 1000 ------- 0 1.0 3.1 19 49
- 1.16215 0 2 tcp 1540 ------- 0 0.0 3.0 26 62
- 1.162274 0 2 tcp 1540 ------- 0 0.0 3.0 27 63
- 1.162397 0 2 tcp 1540 ------- 0 0.0 3.0 28 64
- 1.16252 0 2 tcp 1540 ------- 0 0.0 3.0 29 65
- 1.162643 0 2 tcp 1540 ------- 0 0.0 3.0 30 66
r 1.16416 2 3 cbr 1000 ------- 0 1.0 3.1 18 48
+ 1.168 1 2 cbr 1000 ------- 0 1.0 3.1 21 67
- 1.168 1 2 cbr 1000 ------- 0 1.0 3.1 21 67
r 1.17008 1 2 cbr 1000 ------- 0 1.0 3.1 20 50
+ 1.17008 2 3 cbr 1000 ------- 0 1.0 3.1 20 50
- 1.17008 2 3 cbr 1000 ------- 0 1.0 3.1 20 50
r 1.170918 0 2 tcp 1540 ------- 0 0.0 3.0 15 51
+ 1.170918 2 3 tcp 1540 ------- 0 0.0 3.0 15 51
- 1.170918 2 3 tcp 1540 ------- 0 0.0 3.0 15 51
r 1.171042 0 2 tcp 1540 ------- 0 0.0 3.0 16 52
+ 1.171042 2 3 tcp 1540 ------- 0 0.0 3.0 16 52
- 1.171042 2 3 tcp 1540 ------- 0 0.0 3.0 16 52
r 1.171165 0 2 tcp 1540 ------- 0 0.0 3.0 17 53
+ 1.171165 2 3 tcp 1540 ------- 0 0.0 3.0 17 53
- 1.171165 2 3 tcp 1540 ------- 0 0.0 3.0 17 53
r 1.171288 0 2 tcp 1540 ------- 0 0.0 3.0 18 54
+ 1.171288 2 3 tcp 1540 ------- 0 0.0 3.0 18 54
- 1.171288 2 3 tcp 1540 ------- 0 0.0 3.0 18 54
r 1.171411 0 2 tcp 1540 ------- 0 0.0 3.0 19 55
+ 1.171411 2 3 tcp 1540 ------- 0 0.0 3.0 19 55
- 1.171411 2 3 tcp 1540 ------- 0 0.0 3.0 19 55
r 1.171534 0 2 tcp 1540 ------- 0 0.0 3.0 20 56
+ 1.171534 2 3 tcp 1540 ------- 0 0.0 3.0 20 56
- 1.171534 2 3 tcp 1540 ------- 0 0.0 3.0 20 56
r 1.171658 0 2 tcp 1540 ------- 0 0.0 3.0 21 57
+ 1.171658 2 3 tcp 1540 ------- 0 0.0 3.0 21 57
- 1.171658 2 3 tcp 1540 ------- 0 0.0 3.0 21 57
r 1.171781 0 2 tcp 1540 ------- 0 0.0 3.0 22 58
+ 1.171781 2 3 tcp 1540 ------- 0 0.0 3.0 22 58
- 1.171781 2 3 tcp 1540 ------- 0 0.0 3.0 22 58
r 1.171904 0 2 tcp 1540 ------- 0 0.0 3.0 23 59
+ 1.171904 2 3 tcp 1540 ------- 0 0.0 3.0 23 59
- 1.171904 2 3 tcp 1540 ------- 0 0.0 3.0 23 59
r 1.172027 0 2 tcp 1540 ------- 0 0.0 3.0 24 60
+ 1.172027 2 3 tcp 1540 ------- 0 0.0 3.0 24 60
- 1.172027 2 3 tcp 1540 ------- 0 0.0 3.0 24 60
r 1.17215 0 2 tcp 1540 ------- 0 0.0 3.0 25 61
+ 1.17215 2 3 tcp 1540 ------- 0 0.0 3.0 25 61
- 1.17215 2 3 tcp 1540 ------- 0 0.0 3.0 25 61
r 1.17216 2 3 cbr 1000 ------- 0 1.0 3.1 19 49
r 1.172274 0 2 tcp 1540 ------- 0 0.0 3.0 26 62
+ 1.172274 2 3 tcp 1540 ------- 0 0.0 3.0 26 62
- 1.172274 2 3 tcp 1540 ------- 0 0.0 3.0 26 62
r 1.172397 0 2 tcp 1540 ------- 0 0.0 3.0 27 63
+ 1.172397 2 3 tcp 1540 ------- 0 0.0 3.0 27 63
- 1.172397 2 3 tcp 1540 ------- 0 0.0 3.0 27 63
r 1.17252 0 2 tcp 1540 ------- 0 0.0 3.0 28 64
+ 1.17252 2 3 tcp 1540 ------- 0 0.0 3.0 28 64
- 1.17252 2 3 tcp 1540 ------- 0 0.0 3.0 28 64
r 1.172643 0 2 tcp 1540 ------- 0 0.0 3.0 29 65
+ 1.172643 2 3 tcp 1540 ------- 0 0.0 3.0 29 65
- 1.172643 2 3 tcp 1540 ------- 0 0.0 3.0 29 65
r 1.172766 0 2 tcp 1540 ------- 0 0.0 3.0 30 66
+ 1.172766 2 3 tcp 1540 ------- 0 0.0 3.0 30 66
- 1.172766 2 3 tcp 1540 ------- 0 0.0 3.0 30 66
+ 1.176 1 2 cbr 1000 ------- 0 1.0 3.1 22 68
- 1.176 1 2 cbr 1000 ------- 0 1.0 3.1 22 68
r 1.17808 1 2 cbr 1000 ------- 0 1.0 3.1 21 67
+ 1.17808 2 3 cbr 1000 ------- 0 1.0 3.1 21 67
- 1.17808 2 3 cbr 1000 ------- 0 1.0 3.1 21 67
r 1.18016 2 3 cbr 1000 ------- 0 1.0 3.1 20 50
r 1.181042 2 3 tcp 1540 ------- 0 0.0 3.0 15 51
+ 1.181042 3 2 ack 40 ------- 0 3.0 0.0 15 69
- 1.181042 3 2 ack 40 ------- 0 3.0 0.0 15 69
r 1.181165 2 3 tcp 1540 ------- 0 0.0 3.0 16 52
+ 1.181165 3 2 ack 40 ------- 0 3.0 0.0 16 70
- 1.181165 3 2 ack 40 ------- 0 3.0 0.0 16 70
r 1.181288 2 3 tcp 1540 ------- 0 0.0 3.0 17 53
+ 1.181288 3 2 ack 40 ------- 0 3.0 0.0 17 71
- 1.181288 3 2 ack 40 ------- 0 3.0 0.0 17 71
r 1.181411 2 3 tcp 1540 ------- 0 0.0 3.0 18 54
+ 1.181411 3 2 ack 40 ------- 0 3.0 0.0 18 72
- 1.181411 3 2 ack 40 ------- 0 3.0 0.0 18 72
r 1.181534 2 3 tcp 1540 ------- 0 0.0 3.0 19 55
+ 1.181534 3 2 ack 40 ------- 0 3.0 0.0 19 73
- 1.181534 3 2 ack 40 ------- 0 3.0 0.0 19 73
r 1.181658 2 3 tcp 1540 ------- 0 0.0 3.0 20 56
+ 1.181658 3 2 ack 40 ------- 0 3.0 0.0 20 74
- 1.181658 3 2 ack 40 ------- 0 3.0 0.0 20 74
r 1.181781 2 3 tcp 1540 ------- 0 0.0 3.0 21 57
+ 1.181781 3 2 ack 40 ------- 0 3.0 0.0 21 75
- 1.181781 3 2 ack 40 ------- 0 3.0 0.0 21 75
r 1.181904 2 3 tcp 1540 ------- 0 0.0 3.0 22 58
+ 1.181904 3 2 ack 40 ------- 0 3.0 0.0 22 76
- 1.181904 3 2 ack 40 ------- 0 3.0 0.0 22 76
r 1.182027 2 3 tcp 1540 ------- 0 0.0 3.0 23 59
+ 1.182027 3 2 ack 40 ------- 0 3.0 0.0 23 77
- 1.182027 3 2 ack 40 ------- 0 3.0 0.0 23 77
r 1.18215 2 3 tcp 1540 ------- 0 0.0 3.0 24 60
+ 1.18215 3 2 ack 40 ------- 0 3.0 0.0 24 78
- 1.18215 3 2 ack 40 ------- 0 3.0 0.0 24 78
r 1.182274 2 3 tcp 1540 ------- 0 0.0 3.0 25 61
+ 1.182274 3 2 ack 40 ------- 0 3.0 0.0 25 79
- 1.182274 3 2 ack 40 ------- 0 3.0 0.0 25 79
r 1.182397 2 3 tcp 1540 ------- 0 0.0 3.0 26 62
+ 1.182397 3 2 ack 40 ------- 0 3.0 0.0 26 80
- 1.182397 3 2 ack 40 ------- 0 3.0 0.0 26 80
r 1.18252 2 3 tcp 1540 ------- 0 0.0 3.0 27 63
+ 1.18252 3 2 ack 40 ------- 0 3.0 0.0 27 81
- 1.18252 3 2 ack 40 ------- 0 3.0 0.0 27 81
r 1.182643 2 3 tcp 1540 ------- 0 0.0 3.0 28 64
+ 1.182643 3 2 ack 40 ------- 0 3.0 0.0 28 82
- 1.182643 3 2 ack 40 ------- 0 3.0 0.0 28 82
r 1.182766 2 3 tcp 1540 ------- 0 0.0 3.0 29 65
+ 1.182766 3 2 ack 40 ------- 0 3.0 0.0 29 83
- 1.182766 3 2 ack 40 ------- 0 3.0 0.0 29 83
r 1.18289 2 3 tcp 1540 ------- 0 0.0 3.0 30 66
+ 1.18289 3 2 ack 40 ------- 0 3.0 0.0 30 84
- 1.18289 3 2 ack 40 ------- 0 3.0 0.0 30 84
+ 1.184 1 2 cbr 1000 ------- 0 1.0 3.1 23 85
- 1.184 1 2 cbr 1000 ------- 0 1.0 3.1 23 85
r 1.18608 1 2 cbr 1000 ------- 0 1.0 3.1 22 68
+ 1.18608 2 3 cbr 1000 ------- 0 1.0 3.1 22 68
- 1.18608 2 3 cbr 1000 ------- 0 1.0 3.1 22 68
r 1.18816 2 3 cbr 1000 ------- 0 1.0 3.1 21 67
r 1.191045 3 2 ack 40 ------- 0 3.0 0.0 15 69
+ 1.191045 2 0 ack 40 ------- 0 3.0 0.0 15 69
- 1.191045 2 0 ack 40 ------- 0 3.0 0.0 15 69
r 1.191168 3 2 ack 40 ------- 0 3.0 0.0 16 70
+ 1.191168 2 0 ack 40 ------- 0 3.0 0.0 16 70
- 1.191168 2 0 ack 40 ------- 0 3.0 0.0 16 70
r 1.191291 3 2 ack 40 ------- 0 3.0 0.0 17 71
+ 1.191291 2 0 ack 40 ------- 0 3.0 0.0 17 71
- 1.191291 2 0 ack 40 ------- 0 3.0 0.0 17 71
r 1.191414 3 2 ack 40 ------- 0 3.0 0.0 18 72
+ 1.191414 2 0 ack 40 ------- 0 3.0 0.0 18 72
- 1.191414 2 0 ack 40 ------- 0 3.0 0.0 18 72
r 1.191538 3 2 ack 40 ------- 0 3.0 0.0 19 73
+ 1.191538 2 0 ack 40 ------- 0 3.0 0.0 19 73
- 1.191538 2 0 ack 40 ------- 0 3.0 0.0 19 73
r 1.191661 3 2 ack 40 ------- 0 3.0 0.0 20 74
+ 1.191661 2 0 ack 40 ------- 0 3.0 0.0 20 74
- 1.191661 2 0 ack 40 ------- 0 3.0 0.0 20 74
r 1.191784 3 2 ack 40 ------- 0 3.0 0.0 21 75
+ 1.191784 2 0 ack 40 ------- 0 3.0 0.0 21 75
- 1.191784 2 0 ack 40 ------- 0 3.0 0.0 21 75
r 1.191907 3 2 ack 40 ------- 0 3.0 0.0 22 76
+ 1.191907 2 0 ack 40 ------- 0 3.0 0.0 22 76
- 1.191907 2 0 ack 40 ------- 0 3.0 0.0 22 76
+ 1.192 1 2 cbr 1000 ------- 0 1.0 3.1 24 86
- 1.192 1 2 cbr 1000 ------- 0 1.0 3.1 24 86
r 1.19203 3 2 ack 40 ------- 0 3.0 0.0 23 77
+ 1.19203 2 0 ack 40 ------- 0 3.0 0.0 23 77
- 1.19203 2 0 ack 40 ------- 0 3.0 0.0 23 77
r 1.192154 3 2 ack 40 ------- 0 3.0 0.0 24 78
+ 1.192154 2 0 ack 40 ------- 0 3.0 0.0 24 78
- 1.192154 2 0 ack 40 ------- 0 3.0 0.0 24 78
r 1.192277 3 2 ack 40 ------- 0 3.0 0.0 25 79
+ 1.192277 2 0 ack 40 ------- 0 3.0 0.0 25 79
- 1.192277 2 0 ack 40 ------- 0 3.0 0.0 25 79
r 1.1924 3 2 ack 40 ------- 0 3.0 0.0 26 80
+ 1.1924 2 0 ack 40 ------- 0 3.0 0.0 26 80
- 1.1924 2 0 ack 40 ------- 0 3.0 0.0 26 80
r 1.192523 3 2 ack 40 ------- 0 3.0 0.0 27 81
+ 1.192523 2 0 ack 40 ------- 0 3.0 0.0 27 81
- 1.192523 2 0 ack 40 ------- 0 3.0 0.0 27 81
r 1.192646 3 2 ack 40 ------- 0 3.0 0.0 28 82
+ 1.192646 2 0 ack 40 ------- 0 3.0 0.0 28 82
- 1.192646 2 0 ack 40 ------- 0 3.0 0.0 28 82
r 1.19277 3 2 ack 40 ------- 0 3.0 0.0 29 83
+ 1.19277 2 0 ack 40 ------- 0 3.0 0.0 29 83
- 1.19277 2 0 ack 40 ------- 0 3.0 0.0 29 83
r 1.192893 3 2 ack 40 ------- 0 3.0 0.0 30 84
+ 1.192893 2 0 ack 40 ------- 0 3.0 0.0 30 84
- 1.192893 2 0 ack 40 ------- 0 3.0 0.0 30 84
r 1.19408 1 2 cbr 1000 ------- 0 1.0 3.1 23 85
+ 1.19408 2 3 cbr 1000 ------- 0 1.0 3.1 23 85
- 1.19408 2 3 cbr 1000 ------- 0 1.0 3.1 23 85
r 1.19616 2 3 cbr 1000 ------- 0 1.0 3.1 22 68
+ 1.2 1 2 cbr 1000 ------- 0 1.0 3.1 25 87
- 1.2 1 2 cbr 1000 ------- 0 1.0 3.1 25 87
r 1.201048 2 0 ack 40 ------- 0 3.0 0.0 15 69
+ 1.201048 0 2 tcp 1540 ------- 0 0.0 3.0 31 88
- 1.201048 0 2 tcp 1540 ------- 0 0.0 3.0 31 88
+ 1.201048 0 2 tcp 1540 ------- 0 0.0 3.0 32 89
r 1.201171 2 0 ack 40 ------- 0 3.0 0.0 16 70
+ 1.201171 0 2 tcp 1540 ------- 0 0.0 3.0 33 90
+ 1.201171 0 2 tcp 1540 ------- 0 0.0 3.0 34 91
- 1.201171 0 2 tcp 1540 ------- 0 0.0 3.0 32 89
r 1.201294 2 0 ack 40 ------- 0 3.0 0.0 17 71
+ 1.201294 0 2 tcp 1540 ------- 0 0.0 3.0 35 92
+ 1.201294 0 2 tcp 1540 ------- 0 0.0 3.0 36 93
- 1.201294 0 2 tcp 1540 ------- 0 0.0 3.0 33 90
r 1.201418 2 0 ack 40 ------- 0 3.0 0.0 18 72
+ 1.201418 0 2 tcp 1540 ------- 0 0.0 3.0 37 94
+ 1.201418 0 2 tcp 1540 ------- 0 0.0 3.0 38 95
- 1.201418 0 2 tcp 1540 ------- 0 0.0 3.0 34 91
r 1.201541 2 0 ack 40 ------- 0 3.0 0.0 19 73
+ 1.201541 0 2 tcp 1540 ------- 0 0.0 3.0 39 96
- 1.201541 0 2 tcp 1540 ------- 0 0.0 3.0 35 92
r 1.201664 2 0 ack 40 ------- 0 3.0 0.0 20 74
+ 1.201664 0 2 tcp 1540 ------- 0 0.0 3.0 40 97
- 1.201664 0 2 tcp 1540 ------- 0 0.0 3.0 36 93
r 1.201787 2 0 ack 40 ------- 0 3.0 0.0 21 75
+ 1.201787 0 2 tcp 1540 ------- 0 0.0 3.0 41 98
- 1.201787 0 2 tcp 1540 ------- 0 0.0 3.0 37 94
r 1.20191 2 0 ack 40 ------- 0 3.0 0.0 22 76
+ 1.20191 0 2 tcp 1540 ------- 0 0.0 3.0 42 99
- 1.20191 0 2 tcp 1540 ------- 0 0.0 3.0 38 95
r 1.202034 2 0 ack 40 ------- 0 3.0 0.0 23 77
+ 1.202034 0 2 tcp 1540 ------- 0 0.0 3.0 43 100
- 1.202034 0 2 tcp 1540 ------- 0 0.0 3.0 39 96
r 1.20208 1 2 cbr 1000 ------- 0 1.0 3.1 24 86
+ 1.20208 2 3 cbr 1000 ------- 0 1.0 3.1 24 86
- 1.20208 2 3 cbr 1000 ------- 0 1.0 3.1 24 86
r 1.202157 2 0 ack 40 ------- 0 3.0 0.0 24 78
+ 1.202157 0 2 tcp 1540 ------- 0 0.0 3.0 44 101
- 1.202157 0 2 tcp 1540 ------- 0 0.0 3.0 40 97
r 1.20228 2 0 ack 40 ------- 0 3.0 0.0 25 79
+ 1.20228 0 2 tcp 1540 ------- 0 0.0 3.0 45 102
- 1.20228 0 2 tcp 1540 ------- 0 0.0 3.0 41 98
r 1.202403 2 0 ack 40 ------- 0 3.0 0.0 26 80
+ 1.202403 0 2 tcp 1540 ------- 0 0.0 3.0 46 103
- 1.202403 0 2 tcp 1540 ------- 0 0.0 3.0 42 99
r 1.202526 2 0 ack 40 ------- 0 3.0 0.0 27 81
+ 1.202526 0 2 tcp 1540 ------- 0 0.0 3.0 47 104
- 1.202526 0 2 tcp 1540 ------- 0 0.0 3.0 43 100
r 1.20265 2 0 ack 40 ------- 0 3.0 0.0 28 82
+ 1.20265 0 2 tcp 1540 ------- 0 0.0 3.0 48 105
- 1.20265 0 2 tcp 1540 ------- 0 0.0 3.0 44 101
r 1.202773 2 0 ack 40 ------- 0 3.0 0.0 29 83
+ 1.202773 0 2 tcp 1540 ------- 0 0.0 3.0 49 106
- 1.202773 0 2 tcp 1540 ------- 0 0.0 3.0 45 102
r 1.202896 2 0 ack 40 ------- 0 3.0 0.0 30 84
+ 1.202896 0 2 tcp 1540 ------- 0 0.0 3.0 50 107
- 1.202896 0 2 tcp 1540 ------- 0 0.0 3.0 46 103
- 1.203019 0 2 tcp 1540 ------- 0 0.0 3.0 47 104
- 1.203142 0 2 tcp 1540 ------- 0 0.0 3.0 48 105
- 1.203266 0 2 tcp 1540 ------- 0 0.0 3.0 49 106
- 1.203389 0 2 tcp 1540 ------- 0 0.0 3.0 50 107
r 1.20416 2 3 cbr 1000 ------- 0 1.0 3.1 23 85
+ 1.208 1 2 cbr 1000 ------- 0 1.0 3.1 26 108
- 1.208 1 2 cbr 1000 ------- 0 1.0 3.1 26 108
r 1.21008 1 2 cbr 1000 ------- 0 1.0 3.1 25 87
+ 1.21008 2 3 cbr 1000 ------- 0 1.0 3.1 25 87
- 1.21008 2 3 cbr 1000 ------- 0 1.0 3.1 25 87
r 1.211171 0 2 tcp 1540 ------- 0 0.0 3.0 31 88
+ 1.211171 2 3 tcp 1540 ------- 0 0.0 3.0 31 88
- 1.211171 2 3 tcp 1540 ------- 0 0.0 3.0 31 88
r 1.211294 0 2 tcp 1540 ------- 0 0.0 3.0 32 89
+ 1.211294 2 3 tcp 1540 ------- 0 0.0 3.0 32 89
- 1.211294 2 3 tcp 1540 ------- 0 0.0 3.0 32 89
r 1.211418 0 2 tcp 1540 ------- 0 0.0 3.0 33 90
+ 1.211418 2 3 tcp 1540 ------- 0 0.0 3.0 33 90
- 1.211418 2 3 tcp 1540 ------- 0 0.0 3.0 33 90
r 1.211541 0 2 tcp 1540 ------- 0 0.0 3.0 34 91
+ 1.211541 2 3 tcp 1540 ------- 0 0.0 3.0 34 91
- 1.211541 2 3 tcp 1540 ------- 0 0.0 3.0 34 91
r 1.211664 0 2 tcp 1540 ------- 0 0.0 3.0 35 92
+ 1.211664 2 3 tcp 1540 ------- 0 0.0 3.0 35 92
- 1.211664 2 3 tcp 1540 ------- 0 0.0 3.0 35 92
r 1.211787 0 2 tcp 1540 ------- 0 0.0 3.0 36 93
+ 1.211787 2 3 tcp 1540 ------- 0 0.0 3.0 36 93
- 1.211787 2 3 tcp 1540 ------- 0 0.0 3.0 36 93
r 1.21191 0 2 tcp 1540 ------- 0 0.0 3.0 37 94
+ 1.21191 2 3 tcp 1540 ------- 0 0.0 3.0 37 94
- 1.21191 2 3 tcp 1540 ------- 0 0.0 3.0 37 94
r 1.212034 0 2 tcp 1540 ------- 0 0.0 3.0 38 95
+ 1.212034 2 3 tcp 1540 ------- 0 0.0 3.0 38 95
- 1.212034 2 3 tcp 1540 ------- 0 0.0 3.0 38 95
r 1.212157 0 2 tcp 1540 ------- 0 0.0 3.0 39 96
+ 1.212157 2 3 tcp 1540 ------- 0 0.0 3.0 39 96
- 1.212157 2 3 tcp 1540 ------- 0 0.0 3.0 39 96
r 1.21216 2 3 cbr 1000 ------- 0 1.0 3.1 24 86
r 1.21228 0 2 tcp 1540 ------- 0 0.0 3.0 40 97
+ 1.21228 2 3 tcp 1540 ------- 0 0.0 3.0 40 97
- 1.21228 2 3 tcp 1540 ------- 0 0.0 3.0 40 97
r 1.212403 0 2 tcp 1540 ------- 0 0.0 3.0 41 98
+ 1.212403 2 3 tcp 1540 ------- 0 0.0 3.0 41 98
- 1.212403 2 3 tcp 1540 ------- 0 0.0 3.0 41 98
r 1.212526 0 2 tcp 1540 ------- 0 0.0 3.0 42 99
+ 1.212526 2 3 tcp 1540 ------- 0 0.0 3.0 42 99
- 1.212526 2 3 tcp 1540 ------- 0 0.0 3.0 42 99
r 1.21265 0 2 tcp 1540 ------- 0 0.0 3.0 43 100
+ 1.21265 2 3 tcp 1540 ------- 0 0.0 3.0 43 100
- 1.21265 2 3 tcp 1540 ------- 0 0.0 3.0 43 100
r 1.212773 0 2 tcp 1540 ------- 0 0.0 3.0 44 101
+ 1.212773 2 3 tcp 1540 ------- 0 0.0 3.0 44 101
- 1.212773 2 3 tcp 1540 ------- 0 0.0 3.0 44 101
r 1.212896 0 2 tcp 1540 ------- 0 0.0 3.0 45 102
+ 1.212896 2 3 tcp 1540 ------- 0 0.0 3.0 45 102
- 1.212896 2 3 tcp 1540 ------- 0 0.0 3.0 45 102
r 1.213019 0 2 tcp 1540 ------- 0 0.0 3.0 46 103
+ 1.213019 2 3 tcp 1540 ------- 0 0.0 3.0 46 103
- 1.213019 2 3 tcp 1540 ------- 0 0.0 3.0 46 103
r 1.213142 0 2 tcp 1540 ------- 0 0.0 3.0 47 104
+ 1.213142 2 3 tcp 1540 ------- 0 0.0 3.0 47 104
- 1.213142 2 3 tcp 1540 ------- 0 0.0 3.0 47 104
r 1.213266 0 2 tcp 1540 ------- 0 0.0 3.0 48 105
+ 1.213266 2 3 tcp 1540 ------- 0 0.0 3.0 48 105
- 1.213266 2 3 tcp 1540 ------- 0 0.0 3.0 48 105
r 1.213389 0 2 tcp 1540 ------- 0 0.0 3.0 49 106
+ 1.213389 2 3 tcp 1540 ------- 0 0.0 3.0 49 106
- 1.213389 2 3 tcp 1540 ------- 0 0.0 3.0 49 106
r 1.213512 0 2 tcp 1540 ------- 0 0.0 3.0 50 107
+ 1.213512 2 3 tcp 1540 ------- 0 0.0 3.0 50 107
- 1.213512 2 3 tcp 1540 ------- 0 0.0 3.0 50 107
+ 1.216 1 2 cbr 1000 ------- 0 1.0 3.1 27 109
- 1.216 1 2 cbr 1000 ------- 0 1.0 3.1 27 109
r 1.21808 1 2 cbr 1000 ------- 0 1.0 3.1 26 108
+ 1.21808 2 3 cbr 1000 ------- 0 1.0 3.1 26 108
- 1.21808 2 3 cbr 1000 ------- 0 1.0 3.1 26 108
r 1.22016 2 3 cbr 1000 ------- 0 1.0 3.1 25 87
r 1.221294 2 3 tcp 1540 ------- 0 0.0 3.0 31 88
+ 1.221294 3 2 ack 40 ------- 0 3.0 0.0 31 110
- 1.221294 3 2 ack 40 ------- 0 3.0 0.0 31 110
r 1.221418 2 3 tcp 1540 ------- 0 0.0 3.0 32 89
+ 1.221418 3 2 ack 40 ------- 0 3.0 0.0 32 111
- 1.221418 3 2 ack 40 ------- 0 3.0 0.0 32 111
r 1.221541 2 3 tcp 1540 ------- 0 0.0 3.0 33 90
+ 1.221541 3 2 ack 40 ------- 0 3.0 0.0 33 112
- 1.221541 3 2 ack 40 ------- 0 3.0 0.0 33 112