V -t * -v 1.0a5 -a 0
A -t * -n 1 -p 0 -o 0x7fffffff -c 30 -a 1
A -t * -h 1 -m 1073741823 -s 0
n -t * -a 0 -s 0 -S UP -v circle -c black -i black
n -t * -a 1 -s 1 -S UP -v circle -c black -i black
n -t * -a 2 -s 2 -S UP -v circle -c black -i black
n -t * -a 3 -s 3 -S UP -v circle -c black -i black
l -t * -s 0 -d 2 -S UP -r 10000000 -D 0.01 -c black -o right-down
l -t * -s 1 -d 2 -S UP -r 10000000 -D 0.01 -c black -o right-up
l -t * -s 2 -d 3 -S UP -r 10000000 -D 0.01 -c black -o right
+ -t 1 -s 0 -d 2 -p tcp -e 40 -c 0 -i 0 -a 0 -x {0.0 3.0 0 ------- null}
- -t 1 -s 0 -d 2 -p tcp -e 40 -c 0 -i 0 -a 0 -x {0.0 3.0 0 ------- null}
h -t 1 -s 0 -d 2 -p tcp -e 40 -c 0 -i 0 -a 0 -x {0.0 3.0 -1 ------- null}
+ -t 1 -s 1 -d 2 -p tcp -e 40 -c 0 -i 1 -a 0 -x {1.0 3.1 0 ------- null}
- -t 1 -s 1 -d 2 -p tcp -e 40 -c 0 -i 1 -a 0 -x {1.0 3.1 0 ------- null}
h -t 1 -s 1 -d 2 -p tcp -e 40 -c 0 -i 1 -a 0 -x {1.0 3.1 -1 ------- null}
r -t 1.010032 -s 0 -d 2 -p tcp -e 40 -c 0 -i 0 -a 0 -x {0.0 3.0 0 ------- null}
+ -t 1.010032 -s 2 -d 3 -p tcp -e 40 -c 0 -i 0 -a 0 -x {0.0 3.0 0 ------- null}
- -t 1.010032 -s 2 -d 3 -p tcp -e 40 -c 0 -i 0 -a 0 -x {0.0 3.0 0 ------- null}
h -t 1.010032 -s 2 -d 3 -p tcp -e 40 -c 0 -i 0 -a 0 -x {0.0 3.0 -1 ------- null}
r -t 1.010032 -s 1 -d 2 -p tcp -e 40 -c 0 -i 1 -a 0 -x {1.0 3.1 0 ------- null}
+ -t 1.010032 -s 2 -d 3 -p tcp -e 40 -c 0 -i 1 -a 0 -x {1.0 3.1 0 ------- null}
- -t 1.010064 -s 2 -d 3 -p tcp -e 40 -c 0 -i 1 -a 0 -x {1.0 3.1 0 ------- null}
h -t 1.010064 -s 2 -d 3 -p tcp -e 40 -c 0 -i 1 -a 0 -x {1.0 3.1 -1 ------- null}
r -t 1.020064 -s 2 -d 3 -p tcp -e 40 -c 0 -i 0 -a 0 -x {0.0 3.0 0 ------- null}
+ -t 1.020064 -s 3 -d 2 -p ack -e 40 -c 0 -i 2 -a 0 -x {3.0 0.0 0 ------- null}
- -t 1.020064 -s 3 -d 2 -p ack -e 40 -c 0 -i 2 -a 0 -x {3.0 0.0 0 ------- null}
h -t 1.020064 -s 3 -d 2 -p ack -e 40 -c 0 -i 2 -a 0 -x {3.0 0.0 -1 ------- null}
r -t 1.020096 -s 2 -d 3 -p tcp -e 40 -c 0 -i 1 -a 0 -x {1.0 3.1 0 ------- null}
+ -t 1.020096 -s 3 -d 2 -p ack -e 40 -c 0 -i 3 -a 0 -x {3.1 1.0 0 ------- null}
- -t 1.020096 -s 3 -d 2 -p ack -e 40 -c 0 -i 3 -a 0 -x {3.1 1.0 0 ------- null}
h -t 1.020096 -s 3 -d 2 -p ack -e 40 -c 0 -i 3 -a 0 -x {3.1 1.0 -1 ------- null}
r -t 1.030096 -s 3 -d 2 -p ack -e 40 -c 0 -i 2 -a 0 -x {3.0 0.0 0 ------- null}
+ -t 1.030096 -s 2 -d 0 -p ack -e 40 -c 0 -i 2 -a 0 -x {3.0 0.0 0 ------- null}
- -t 1.030096 -s 2 -d 0 -p ack -e 40 -c 0 -i 2 -a 0 -x {3.0 0.0 0 ------- null}
h -t 1.030096 -s 2 -d 0 -p ack -e 40 -c 0 -i 2 -a 0 -x {3.0 0.0 -1 ------- null}
r -t 1.030128 -s 3 -d 2 -p ack -e 40 -c 0 -i 3 -a 0 -x {3.1 1.0 0 ------- null}
+ -t 1.030128 -s 2 -d 1 -p ack -e 40 -c 0 -i 3 -a 0 -x {3.1 1.0 0 ------- null}
- -t 1.030128 -s 2 -d 1 -p ack -e 40 -c 0 -i 3 -a 0 -x {3.1 1.0 0 ------- null}
h -t 1.030128 -s 2 -d 1 -p ack -e 40 -c 0 -i 3 -a 0 -x {3.1 1.0 -1 ------- null}
r -t 1.040128 -s 2 -d 0 -p ack -e 40 -c 0 -i 2 -a 0 -x {3.0 0.0 0 ------- null}
+ -t 1.040128 -s 0 -d 2 -p tcp -e 1540 -c 0 -i 4 -a 0 -x {0.0 3.0 1 ------- null}
- -t 1.040128 -s 0 -d 2 -p tcp -e 1540 -c 0 -i 4 -a 0 -x {0.0 3.0 1 ------- null}
h -t 1.040128 -s 0 -d 2 -p tcp -e 1540 -c 0 -i 4 -a 0 -x {0.0 3.0 -1 ------- null}
+ -t 1.040128 -s 0 -d 2 -p tcp -e 1540 -c 0 -i 5 -a 0 -x {0.0 3.0 2 ------- null}
r -t 1.04016 -s 2 -d 1 -p ack -e 40 -c 0 -i 3 -a 0 -x {3.1 1.0 0 ------- null}
+ -t 1.04016 -s 1 -d 2 -p tcp -e 1540 -c 0 -i 6 -a 0 -x {1.0 3.1 1 ------- null}
- -t 1.04016 -s 1 -d 2 -p tcp -e 1540 -c 0 -i 6 -a 0 -x {1.0 3.1 1 ------- null}
h -t 1.04016 -s 1 -d 2 -p tcp -e 1540 -c 0 -i 6 -a 0 -x {1.0 3.1 -1 ------- null}
+ -t 1.04016 -s 1 -d 2 -p tcp -e 1540 -c 0 -i 7 -a 0 -x {1.0 3.1 2 ------- null}
- -t 1.04136 -s 0 -d 2 -p tcp -e 1540 -c 0 -i 5 -a 0 -x {0.0 3.0 2 ------- null}
h -t 1.04136 -s 0 -d 2 -p tcp -e 1540 -c 0 -i 5 -a 0 -x {0.0 3.0 -1 ------- null}
- -t 1.041392 -s 1 -d 2 -p tcp -e 1540 -c 0 -i 7 -a 0 -x {1.0 3.1 2 ------- null}
h -t 1.041392 -s 1 -d 2 -p tcp -e 1540 -c 0 -i 7 -a 0 -x {1.0 3.1 -1 ------- null}
r -t 1.05136 -s 0 -d 2 -p tcp -e 1540 -c 0 -i 4 -a 0 -x {0.0 3.0 1 ------- null}
+ -t 1.05136 -s 2 -d 3 -p tcp -e 1540 -c 0 -i 4 -a 0 -x {0.0 3.0 1 ------- null}
- -t 1.05136 -s 2 -d 3 -p tcp -e 1540 -c 0 -i 4 -a 0 -x {0.0 3.0 1 ------- null}
h -t 1.05136 -s 2 -d 3 -p tcp -e 1540 -c 0 -i 4 -a 0 -x {0.0 3.0 -1 ------- null}
r -t 1.051392 -s 1 -d 2 -p tcp -e 1540 -c 0 -i 6 -a 0 -x {1.0 3.1 1 ------- null}
+ -t 1.051392 -s 2 -d 3 -p tcp -e 1540 -c 0 -i 6 -a 0 -x {1.0 3.1 1 ------- null}
r -t 1.052592 -s 0 -d 2 -p tcp -e 1540 -c 0 -i 5 -a 0 -x {0.0 3.0 2 ------- null}
+ -t 1.052592 -s 2 -d 3 -p tcp -e 1540 -c 0 -i 5 -a 0 -x {0.0 3.0 2 ------- null}
- -t 1.052592 -s 2 -d 3 -p tcp -e 1540 -c 0 -i 6 -a 0 -x {1.0 3.1 1 ------- null}
h -t 1.052592 -s 2 -d 3 -p tcp -e 1540 -c 0 -i 6 -a 0 -x {1.0 3.1 -1 ------- null}
r -t 1.052624 -s 1 -d 2 -p tcp -e 1540 -c 0 -i 7 -a 0 -x {1.0 3.1 2 ------- null}
+ -t 1.052624 -s 2 -d 3 -p tcp -e 1540 -c 0 -i 7 -a 0 -x {1.0 3.1 2 ------- null}
- -t 1.053824 -s 2 -d 3 -p tcp -e 1540 -c 0 -i 5 -a 0 -x {0.0 3.0 2 ------- null}
h -t 1.053824 -s 2 -d 3 -p tcp -e 1540 -c 0 -i 5 -a 0 -x {0.0 3.0 -1 ------- null}
- -t 1.055056 -s 2 -d 3 -p tcp -e 1540 -c 0 -i 7 -a 0 -x {1.0 3.1 2 ------- null}
h -t 1.055056 -s 2 -d 3 -p tcp -e 1540 -c 0 -i 7 -a 0 -x {1.0 3.1 -1 ------- null}
r -t 1.062592 -s 2 -d 3 -p tcp -e 1540 -c 0 -i 4 -a 0 -x {0.0 3.0 1 ------- null}
+ -t 1.062592 -s 3 -d 2 -p ack -e 40 -c 0 -i 8 -a 0 -x {3.0 0.0 1 ------- null}
- -t 1.062592 -s 3 -d 2 -p ack -e 40 -c 0 -i 8 -a 0 -x {3.0 0.0 1 ------- null}
h -t 1.062592 -s 3 -d 2 -p ack -e 40 -c 0 -i 8 -a 0 -x {3.0 0.0 -1 ------- null}
r -t 1.063824 -s 2 -d 3 -p tcp -e 1540 -c 0 -i 6 -a 0 -x {1.0 3.1 1 ------- null}
+ -t 1.063824 -s 3 -d 2 -p ack -e 40 -c 0 -i 9 -a 0 -x {3.1 1.0 1 ------- null}
- -t 1.063824 -s 3 -d 2 -p ack -e 40 -c 0 -i 9 -a 0 -x {3.1 1.0 1 ------- null}
h -t 1.063824 -s 3 -d 2 -p ack -e 40 -c 0 -i 9 -a 0 -x {3.1 1.0 -1 ------- null}
r -t 1.065056 -s 2 -d 3 -p tcp -e 1540 -c 0 -i 5 -a 0 -x {0.0 3.0 2 ------- null}
+ -t 1.065056 -s 3 -d 2 -p ack -e 40 -c 0 -i 10 -a 0 -x {3.0 0.0 2 ------- null}
- -t 1.065056 -s 3 -d 2 -p ack -e 40 -c 0 -i 10 -a 0 -x {3.0 0.0 2 ------- null}
h -t 1.065056 -s 3 -d 2 -p ack -e 40 -c 0 -i 10 -a 0 -x {3.0 0.0 -1 ------- null}
r -t 1.066288 -s 2 -d 3 -p tcp -e 1540 -c 0 -i 7 -a 0 -x {1.0 3.1 2 ------- null}
+ -t 1.066288 -s 3 -d 2 -p ack -e 40 -c 0 -i 11 -a 0 -x {3.1 1.0 2 ------- null}
- -t 1.066288 -s 3 -d 2 -p ack -e 40 -c 0 -i 11 -a 0 -x {3.1 1.0 2 ------- null}
h -t 1.066288 -s 3 -d 2 -p ack -e 40 -c 0 -i 11 -a 0 -x {3.1 1.0 -1 ------- null}
r -t 1.072624 -s 3 -d 2 -p ack -e 40 -c 0 -i 8 -a 0 -x {3.0 0.0 1 ------- null}
+ -t 1.072624 -s 2 -d 0 -p ack -e 40 -c 0 -i 8 -a 0 -x {3.0 0.0 1 ------- null}
- -t 1.072624 -s 2 -d 0 -p ack -e 40 -c 0 -i 8 -a 0 -x {3.0 0.0 1 ------- null}
h -t 1.072624 -s 2 -d 0 -p ack -e 40 -c 0 -i 8 -a 0 -x {3.0 0.0 -1 ------- null}
r -t 1.073856 -s 3 -d 2 -p ack -e 40 -c 0 -i 9 -a 0 -x {3.1 1.0 1 ------- null}
+ -t 1.073856 -s 2 -d 1 -p ack -e 40 -c 0 -i 9 -a 0 -x {3.1 1.0 1 ------- null}
- -t 1.073856 -s 2 -d 1 -p ack -e 40 -c 0 -i 9 -a 0 -x {3.1 1.0 1 ------- null}
h -t 1.073856 -s 2 -d 1 -p ack -e 40 -c 0 -i 9 -a 0 -x {3.1 1.0 -1 ------- null}
r -t 1.075088 -s 3 -d 2 -p ack -e 40 -c 0 -i 10 -a 0 -x {3.0 0.0 2 ------- null}
+ -t 1.075088 -s 2 -d 0 -p ack -e 40 -c 0 -i 10 -a 0 -x {3.0 0.0 2 ------- null}
- -t 1.075088 -s 2 -d 0 -p ack -e 40 -c 0 -i 10 -a 0 -x {3.0 0.0 2 ------- null}
h -t 1.075088 -s 2 -d 0 -p ack -e 40 -c 0 -i 10 -a 0 -x {3.0 0.0 -1 ------- null}
r -t 1.07632 -s 3 -d 2 -p ack -e 40 -c 0 -i 11 -a 0 -x {3.1 1.0 2 ------- null}
+ -t 1.07632 -s 2 -d 1 -p ack -e 40 -c 0 -i 11 -a 0 -x {3.1 1.0 2 ------- null}
- -t 1.07632 -s 2 -d 1 -p ack -e 40 -c 0 -i 11 -a 0 -x {3.1 1.0 2 ------- null}
h -t 1.07632 -s 2 -d 1 -p ack -e 40 -c 0 -i 11 -a 0 -x {3.1 1.0 -1 ------- null}
r -t 1.082656 -s 2 -d 0 -p ack -e 40 -c 0 -i 8 -a 0 -x {3.0 0.0 1 ------- null}
+ -t 1.082656 -s 0 -d 2 -p tcp -e 1540 -c 0 -i 12 -a 0 -x {0.0 3.0 3 ------- null}
- -t 1.082656 -s 0 -d 2 -p tcp -e 1540 -c 0 -i 12 -a 0 -x {0.0 3.0 3 ------- null}
h -t 1.082656 -s 0 -d 2 -p tcp -e 1540 -c 0 -i 12 -a 0 -x {0.0 3.0 -1 ------- null}
+ -t 1.082656 -s 0 -d 2 -p tcp -e 1540 -c 0 -i 13 -a 0 -x {0.0 3.0 4 ------- null}
r -t 1.083888 -s 2 -d 1 -p ack -e 40 -c 0 -i 9 -a 0 -x {3.1 1.0 1 ------- null}
+ -t 1.083888 -s 1 -d 2 -p tcp -e 1540 -c 0 -i 14 -a 0 -x {1.0 3.1 3 ------- null}
- -t 1.083888 -s 1 -d 2 -p tcp -e 1540 -c 0 -i 14 -a 0 -x {1.0 3.1 3 ------- null}
h -t 1.083888 -s 1 -d 2 -p tcp -e 1540 -c 0 -i 14 -a 0 -x {1.0 3.1 -1 ------- null}
+ -t 1.083888 -s 1 -d 2 -p tcp -e 1540 -c 0 -i 15 -a 0 -x {1.0 3.1 4 ------- null}
- -t 1.083888 -s 0 -d 2 -p tcp -e 1540 -c 0 -i 13 -a 0 -x {0.0 3.0 4 ------- null}
h -t 1.083888 -s 0 -d 2 -p tcp -e 1540 -c 0 -i 13 -a 0 -x {0.0 3.0 -1 ------- null}
r -t 1.08512 -s 2 -d 0 -p ack -e 40 -c 0 -i 10 -a 0 -x {3.0 0.0 2 ------- null}
+ -t 1.08512 -s 0 -d 2 -p tcp -e 1540 -c 0 -i 16 -a 0 -x {0.0 3.0 5 ------- null}
+ -t 1.08512 -s 0 -d 2 -p tcp -e 1540 -c 0 -i 17 -a 0 -x {0.0 3.0 6 ------- null}
- -t 1.08512 -s 1 -d 2 -p tcp -e 1540 -c 0 -i 15 -a 0 -x {1.0 3.1 4 ------- null}
h -t 1.08512 -s 1 -d 2 -p tcp -e 1540 -c 0 -i 15 -a 0 -x {1.0 3.1 -1 ------- null}
- -t 1.08512 -s 0 -d 2 -p tcp -e 1540 -c 0 -i 16 -a 0 -x {0.0 3.0 5 ------- null}
h -t 1.08512 -s 0 -d 2 -p tcp -e 1540 -c 0 -i 16 -a 0 -x {0.0 3.0 -1 ------- null}
r -t 1.086352 -s 2 -d 1 -p ack -e 40 -c 0 -i 11 -a 0 -x {3.1 1.0 2 ------- null}
+ -t 1.086352 -s 1 -d 2 -p tcp -e 1540 -c 0 -i 18 -a 0 -x {1.0 3.1 5 ------- null}
+ -t 1.086352 -s 1 -d 2 -p tcp -e 1540 -c 0 -i 19 -a 0 -x {1.0 3.1 6 ------- null}
- -t 1.086352 -s 1 -d 2 -p tcp -e 1540 -c 0 -i 18 -a 0 -x {1.0 3.1 5 ------- null}
h -t 1.086352 -s 1 -d 2 -p tcp -e 1540 -c 0 -i 18 -a 0 -x {1.0 3.1 -1 ------- null}
- -t 1.086352 -s 0 -d 2 -p tcp -e 1540 -c 0 -i 17 -a 0 -x {0.0 3.0 6 ------- null}
h -t 1.086352 -s 0 -d 2 -p tcp -e 1540 -c 0 -i 17 -a 0 -x {0.0 3.0 -1 ------- null}
- -t 1.087584 -s 1 -d 2 -p tcp -e 1540 -c 0 -i 19 -a 0 -x {1.0 3.1 6 ------- null}
h -t 1.087584 -s 1 -d 2 -p tcp -e 1540 -c 0 -i 19 -a 0 -x {1.0 3.1 -1 ------- null}
r -t 1.093888 -s 0 -d 2 -p tcp -e 1540 -c 0 -i 12 -a 0 -x {0.0 3.0 3 ------- null}
+ -t 1.093888 -s 2 -d 3 -p tcp -e 1540 -c 0 -i 12 -a 0 -x {0.0 3.0 3 ------- null}
- -t 1.093888 -s 2 -d 3 -p tcp -e 1540 -c 0 -i 12 -a 0 -x {0.0 3.0 3 ------- null}
h -t 1.093888 -s 2 -d 3 -p tcp -e 1540 -c 0 -i 12 -a 0 -x {0.0 3.0 -1 ------- null}
r -t 1.09512 -s 1 -d 2 -p tcp -e 1540 -c 0 -i 14 -a 0 -x {1.0 3.1 3 ------- null}
+ -t 1.09512 -s 2 -d 3 -p tcp -e 1540 -c 0 -i 14 -a 0 -x {1.0 3.1 3 ------- null}
r -t 1.09512 -s 0 -d 2 -p tcp -e 1540 -c 0 -i 13 -a 0 -x {0.0 3.0 4 ------- null}
+ -t 1.09512 -s 2 -d 3 -p tcp -e 1540 -c 0 -i 13 -a 0 -x {0.0 3.0 4 ------- null}
- -t 1.09512 -s 2 -d 3 -p tcp -e 1540 -c 0 -i 14 -a 0 -x {1.0 3.1 3 ------- null}
h -t 1.09512 -s 2 -d 3 -p tcp -e 1540 -c 0 -i 14 -a 0 -x {1.0 3.1 -1 ------- null}
r -t 1.096352 -s 1 -d 2 -p tcp -e 1540 -c 0 -i 15 -a 0 -x {1.0 3.1 4 ------- null}
+ -t 1.096352 -s 2 -d 3 -p tcp -e 1540 -c 0 -i 15 -a 0 -x {1.0 3.1 4 ------- null}
r -t 1.096352 -s 0 -d 2 -p tcp -e 1540 -c 0 -i 16 -a 0 -x {0.0 3.0 5 ------- null}
+ -t 1.096352 -s 2 -d 3 -p tcp -e 1540 -c 0 -i 16 -a 0 -x {0.0 3.0 5 ------- null}
- -t 1.096352 -s 2 -d 3 -p tcp -e 1540 -c 0 -i 13 -a 0 -x {0.0 3.0 4 ------- null}
h -t 1.096352 -s 2 -d 3 -p tcp -e 1540 -c 0 -i 13 -a 0 -x {0.0 3.0 -1 ------- null}
r -t 1.097584 -s 1 -d 2 -p tcp -e 1540 -c 0 -i 18 -a 0 -x {1.0 3.1 5 ------- null}
+ -t 1.097584 -s 2 -d 3 -p tcp -e 1540 -c 0 -i 18 -a 0 -x {1.0 3.1 5 ------- null}
r -t 1.097584 -s 0 -d 2 -p tcp -e 1540 -c 0 -i 17 -a 0 -x {0.0 3.0 6 ------- null}
+ -t 1.097584 -s 2 -d 3 -p tcp -e 1540 -c 0 -i 17 -a 0 -x {0.0 3.0 6 ------- null}
- -t 1.097584 -s 2 -d 3 -p tcp -e 1540 -c 0 -i 15 -a 0 -x {1.0 3.1 4 ------- null}
h -t 1.097584 -s 2 -d 3 -p tcp -e 1540 -c 0 -i 15 -a 0 -x {1.0 3.1 -1 ------- null}
r -t 1.098816 -s 1 -d 2 -p tcp -e 1540 -c 0 -i 19 -a 0 -x {1.0 3.1 6 ------- null}
+ -t 1.098816 -s 2 -d 3 -p tcp -e 1540 -c 0 -i 19 -a 0 -x {1.0 3.1 6 ------- null}
- -t 1.098816 -s 2 -d 3 -p tcp -e 1540 -c 0 -i 16 -a 0 -x {0.0 3.0 5 ------- null}
h -t 1.098816 -s 2 -d 3 -p tcp -e 1540 -c 0 -i 16 -a 0 -x {0.0 3.0 -1 ------- null}
- -t 1.100048 -s 2 -d 3 -p tcp -e 1540 -c 0 -i 18 -a 0 -x {1.0 3.1 5 ------- null}
h -t 1.100048 -s 2 -d 3 -p tcp -e 1540 -c 0 -i 18 -a 0 -x {1.0 3.1 -1 ------- null}
- -t 1.10128 -s 2 -d 3 -p tcp -e 1540 -c 0 -i 17 -a 0 -x {0.0 3.0 6 ------- null}
h -t 1.10128 -s 2 -d 3 -p tcp -e 1540 -c 0 -i 17 -a 0 -x {0.0 3.0 -1 ------- null}
- -t 1.102512 -s 2 -d 3 -p tcp -e 1540 -c 0 -i 19 -a 0 -x {1.0 3.1 6 ------- null}
h -t 1.102512 -s 2 -d 3 -p tcp -e 1540 -c 0 -i 19 -a 0 -x {1.0 3.1 -1 ------- null}
r -t 1.10512 -s 2 -d 3 -p tcp -e 1540 -c 0 -i 12 -a 0 -x {0.0 3.0 3 ------- null}
+ -t 1.10512 -s 3 -d 2 -p ack -e 40 -c 0 -i 20 -a 0 -x {3.0 0.0 3 ------- null}
- -t 1.10512 -s 3 -d 2 -p ack -e 40 -c 0 -i 20 -a 0 -x {3.0 0.0 3 ------- null}
h -t 1.10512 -s 3 -d 2 -p ack -e 40 -c 0 -i 20 -a 0 -x {3.0 0.0 -1 ------- null}
r -t 1.106352 -s 2 -d 3 -p tcp -e 1540 -c 0 -i 14 -a 0 -x {1.0 3.1 3 ------- null}
+ -t 1.106352 -s 3 -d 2 -p ack -e 40 -c 0 -i 21 -a 0 -x {3.1 1.0 3 ------- null}
- -t 1.106352 -s 3 -d 2 -p ack -e 40 -c 0 -i 21 -a 0 -x {3.1 1.0 3 ------- null}
h -t 1.106352 -s 3 -d 2 -p ack -e 40 -c 0 -i 21 -a 0 -x {3.1 1.0 -1 ------- null}
r -t 1.107584 -s 2 -d 3 -p tcp -e 1540 -c 0 -i 13 -a 0 -x {0.0 3.0 4 ------- null}
+ -t 1.107584 -s 3 -d 2 -p ack -e 40 -c 0 -i 22 -a 0 -x {3.0 0.0 4 ------- null}
- -t 1.107584 -s 3 -d 2 -p ack -e 40 -c 0 -i 22 -a 0 -x {3.0 0.0 4 ------- null}
h -t 1.107584 -s 3 -d 2 -p ack -e 40 -c 0 -i 22 -a 0 -x {3.0 0.0 -1 ------- null}
r -t 1.108816 -s 2 -d 3 -p tcp -e 1540 -c 0 -i 15 -a 0 -x {1.0 3.1 4 ------- null}
+ -t 1.108816 -s 3 -d 2 -p ack -e 40 -c 0 -i 23 -a 0 -x {3.1 1.0 4 ------- null}
- -t 1.108816 -s 3 -d 2 -p ack -e 40 -c 0 -i 23 -a 0 -x {3.1 1.0 4 ------- null}
h -t 1.108816 -s 3 -d 2 -p ack -e 40 -c 0 -i 23 -a 0 -x {3.1 1.0 -1 ------- null}
r -t 1.110048 -s 2 -d 3 -p tcp -e 1540 -c 0 -i 16 -a 0 -x {0.0 3.0 5 ------- null}
+ -t 1.110048 -s 3 -d 2 -p ack -e 40 -c 0 -i 24 -a 0 -x {3.0 0.0 5 ------- null}
- -t 1.110048 -s 3 -d 2 -p ack -e 40 -c 0 -i 24 -a 0 -x {3.0 0.0 5 ------- null}
h -t 1.110048 -s 3 -d 2 -p ack -e 40 -c 0 -i 24 -a 0 -x {3.0 0.0 -1 ------- null}
r -t 1.11128 -s 2 -d 3 -p tcp -e 1540 -c 0 -i 18 -a 0 -x {1.0 3.1 5 ------- null}
+ -t 1.11128 -s 3 -d 2 -p ack -e 40 -c 0 -i 25 -a 0 -x {3.1 1.0 5 ------- null}
- -t 1.11128 -s 3 -d 2 -p ack -e 40 -c 0 -i 25 -a 0 -x {3.1 1.0 5 ------- null}
h -t 1.11128 -s 3 -d 2 -p ack -e 40 -c 0 -i 25 -a 0 -x {3.1 1.0 -1 ------- null}
r -t 1.112512 -s 2 -d 3 -p tcp -e 1540 -c 0 -i 17 -a 0 -x {0.0 3.0 6 ------- null}
+ -t 1.112512 -s 3 -d 2 -p ack -e 40 -c 0 -i 26 -a 0 -x {3.0 0.0 6 ------- null}
- -t 1.112512 -s 3 -d 2 -p ack -e 40 -c 0 -i 26 -a 0 -x {3.0 0.0 6 ------- null}
h -t 1.112512 -s 3 -d 2 -p ack -e 40 -c 0 -i 26 -a 0 -x {3.0 0.0 -1 ------- null}
r -t 1.113744 -s 2 -d 3 -p tcp -e 1540 -c 0 -i 19 -a 0 -x {1.0 3.1 6 ------- null}
+ -t 1.113744 -s 3 -d 2 -p ack -e 40 -c 0 -i 27 -a 0 -x {3.1 1.0 6 ------- null}
- -t 1.113744 -s 3 -d 2 -p ack -e 40 -c 0 -i 27 -a 0 -x {3.1 1.0 6 ------- null}
h -t 1.113744 -s 3 -d 2 -p ack -e 40 -c 0 -i 27 -a 0 -x {3.1 1.0 -1 ------- null}
r -t 1.115152 -s 3 -d 2 -p ack -e 40 -c 0 -i 20 -a 0 -x {3.0 0.0 3 ------- null}
+ -t 1.115152 -s 2 -d 0 -p ack -e 40 -c 0 -i 20 -a 0 -x {3.0 0.0 3 ------- null}
- -t 1.115152 -s 2 -d 0 -p ack -e 40 -c 0 -i 20 -a 0 -x {3.0 0.0 3 ------- null}
h -t 1.115152 -s 2 -d 0 -p ack -e 40 -c 0 -i 20 -a 0 -x {3.0 0.0 -1 ------- null}
r -t 1.116384 -s 3 -d 2 -p ack -e 40 -c 0 -i 21 -a 0 -x {3.1 1.0 3 ------- null}
+ -t 1.116384 -s 2 -d 1 -p ack -e 40 -c 0 -i 21 -a 0 -x {3.1 1.0 3 ------- null}
- -t 1.116384 -s 2 -d 1 -p ack -e 40 -c 0 -i 21 -a 0 -x {3.1 1.0 3 ------- null}
h -t 1.116384 -s 2 -d 1 -p ack -e 40 -c 0 -i 21 -a 0 -x {3.1 1.0 -1 ------- null}
r -t 1.117616 -s 3 -d 2 -p ack -e 40 -c 0 -i 22 -a 0 -x {3.0 0.0 4 ------- null}
+ -t 1.117616 -s 2 -d 0 -p ack -e 40 -c 0 -i 22 -a 0 -x {3.0 0.0 4 ------- null}
- -t 1.117616 -s 2 -d 0 -p ack -e 40 -c 0 -i 22 -a 0 -x {3.0 0.0 4 ------- null}
h -t 1.117616 -s 2 -d 0 -p ack -e 40 -c 0 -i 22 -a 0 -x {3.0 0.0 -1 ------- null}
r -t 1.118848 -s 3 -d 2 -p ack -e 40 -c 0 -i 23 -a 0 -x {3.1 1.0 4 ------- null}
+ -t 1.118848 -s 2 -d 1 -p ack -e 40 -c 0 -i 23 -a 0 -x {3.1 1.0 4 ------- null}
- -t 1.118848 -s 2 -d 1 -p ack -e 40 -c 0 -i 23 -a 0 -x {3.1 1.0 4 ------- null}
h -t 1.118848 -s 2 -d 1 -p ack -e 40 -c 0 -i 23 -a 0 -x {3.1 1.0 -1 ------- null}
r -t 1.12008 -s 3 -d 2 -p ack -e 40 -c 0 -i 24 -a 0 -x {3.0 0.0 5 ------- null}
+ -t 1.12008 -s 2 -d 0 -p ack -e 40 -c 0 -i 24 -a 0 -x {3.0 0.0 5 ------- null}
- -t 1.12008 -s 2 -d 0 -p ack -e 40 -c 0 -i 24 -a 0 -x {3.0 0.0 5 ------- null}
h -t 1.12008 -s 2 -d 0 -p ack -e 40 -c 0 -i 24 -a 0 -x {3.0 0.0 -1 ------- null}
r -t 1.121312 -s 3 -d 2 -p ack -e 40 -c 0 -i 25 -a 0 -x {3.1 1.0 5 ------- null}
+ -t 1.121312 -s 2 -d 1 -p ack -e 40 -c 0 -i 25 -a 0 -x {3.1 1.0 5 ------- null}
- -t 1.121312 -s 2 -d 1 -p ack -e 40 -c 0 -i 25 -a 0 -x {3.1 1.0 5 ------- null}
h -t 1.121312 -s 2 -d 1 -p ack -e 40 -c 0 -i 25 -a 0 -x {3.1 1.0 -1 ------- null}
r -t 1.122544 -s 3 -d 2 -p ack -e 40 -c 0 -i 26 -a 0 -x {3.0 0.0 6 ------- null}
+ -t 1.122544 -s 2 -d 0 -p ack -e 40 -c 0 -i 26 -a 0 -x {3.0 0.0 6 ------- null}
- -t 1.122544 -s 2 -d 0 -p ack -e 40 -c 0 -i 26 -a 0 -x {3.0 0.0 6 ------- null}
h -t 1.122544 -s 2 -d 0 -p ack -e 40 -c 0 -i 26 -a 0 -x {3.0 0.0 -1 ------- null}
r -t 1.123776 -s 3 -d 2 -p ack -e 40 -c 0 -i 27 -a 0 -x {3.1 1.0 6 ------- null}
+ -t 1.123776 -s 2 -d 1 -p ack -e 40 -c 0 -i 27 -a 0 -x {3.1 1.0 6 ------- null}
- -t 1.123776 -s 2 -d 1 -p ack -e 40 -c 0 -i 27 -a 0 -x {3.1 1.0 6 ------- null}
h -t 1.123776 -s 2 -d 1 -p ack -e 40 -c 0 -i 27 -a 0 -x {3.1 1.0 -1 ------- null}
r -t 1.125184 -s 2 -d 0 -p ack -e 40 -c 0 -i 20 -a 0 -x {3.0 0.0 3 ------- null}
+ -t 1.125184 -s 0 -d 2 -p tcp -e 1540 -c 0 -i 28 -a 0 -x {0.0 3.0 7 ------- null}
- -t 1.125184 -s 0 -d 2 -p tcp -e 1540 -c 0 -i 28 -a 0 -x {0.0 3.0 7 ------- null}
h -t 1.125184 -s 0 -d 2 -p tcp -e 1540 -c 0 -i 28 -a 0 -x {0.0 3.0 -1 ------- null}
+ -t 1.125184 -s 0 -d 2 -p tcp -e 1540 -c 0 -i 29 -a 0 -x {0.0 3.0 8 ------- null}
r -t 1.126416 -s 2 -d 1 -p ack -e 40 -c 0 -i 21 -a 0 -x {3.1 1.0 3 ------- null}
+ -t 1.126416 -s 1 -d 2 -p tcp -e 1540 -c 0 -i 30 -a 0 -x {1.0 3.1 7 ------- null}
- -t 1.126416 -s 1 -d 2 -p tcp -e 1540 -c 0 -i 30 -a 0 -x {1.0 3.1 7 ------- null}
h -t 1.126416 -s 1 -d 2 -p tcp -e 1540 -c 0 -i 30 -a 0 -x {1.0 3.1 -1 ------- null}
+ -t 1.126416 -s 1 -d 2 -p tcp -e 1540 -c 0 -i 31 -a 0 -x {1.0 3.1 8 ------- null}
- -t 1.126416 -s 0 -d 2 -p tcp -e 1540 -c 0 -i 29 -a 0 -x {0.0 3.0 8 ------- null}
h -t 1.126416 -s 0 -d 2 -p tcp -e 1540 -c 0 -i 29 -a 0 -x {0.0 3.0 -1 ------- null}
r -t 1.127648 -s 2 -d 0 -p ack -e 40 -c 0 -i 22 -a 0 -x {3.0 0.0 4 ------- null}
+ -t 1.127648 -s 0 -d 2 -p tcp -e 1540 -c 0 -i 32 -a 0 -x {0.0 3.0 9 ------- null}
+ -t 1.127648 -s 0 -d 2 -p tcp -e 1540 -c 0 -i 33 -a 0 -x {0.0 3.0 10 ------- null}
- -t 1.127648 -s 1 -d 2 -p tcp -e 1540 -c 0 -i 31 -a 0 -x {1.0 3.1 8 ------- null}
h -t 1.127648 -s 1 -d 2 -p tcp -e 1540 -c 0 -i 31 -a 0 -x {1.0 3.1 -1 ------- null}
- -t 1.127648 -s 0 -d 2 -p tcp -e 1540 -c 0 -i 32 -a 0 -x {0.0 3.0 9 ------- null}
h -t 1.127648 -s 0 -d 2 -p tcp -e 1540 -c 0 -i 32 -a 0 -x {0.0 3.0 -1 ------- null}
r -t 1.12888 -s 2 -d 1 -p ack -e 40 -c 0 -i 23 -a 0 -x {3.1 1.0 4 ------- null}
+ -t 1.12888 -s 1 -d 2 -p tcp -e 1540 -c 0 -i 34 -a 0 -x {1.0 3.1 9 ------- null}
+ -t 1.12888 -s 1 -d 2 -p tcp -e 1540 -c 0 -i 35 -a 0 -x {1.0 3.1 10 ------- null}
- -t 1.12888 -s 1 -d 2 -p tcp -e 1540 -c 0 -i 34 -a 0 -x {1.0 3.1 9 ------- null}
h -t 1.12888 -s 1 -d 2 -p tcp -e 1540 -c 0 -i 34 -a 0 -x {1.0 3.1 -1 ------- null}
- -t 1.12888 -s 0 -d 2 -p tcp -e 1540 -c 0 -i 33 -a 0 -x {0.0 3.0 10 ------- null}
h -t 1.12888 -s 0 -d 2 -p tcp -e 1540 -c 0 -i 33 -a 0 -x {0.0 3.0 -1 ------- null}
r -t 1.130112 -s 2 -d 0 -p ack -e 40 -c 0 -i 24 -a 0 -x {3.0 0.0 5 ------- null}
+ -t 1.130112 -s 0 -d 2 -p tcp -e 1540 -c 0 -i 36 -a 0 -x {0.0 3.0 11 ------- null}
+ -t 1.130112 -s 0 -d 2 -p tcp -e 1540 -c 0 -i 37 -a 0 -x {0.0 3.0 12 ------- null}
- -t 1.130112 -s 1 -d 2 -p tcp -e 1540 -c 0 -i 35 -a 0 -x {1.0 3.1 10 ------- null}
h -t 1.130112 -s 1 -d 2 -p tcp -e 1540 -c 0 -i 35 -a 0 -x {1.0 3.1 -1 ------- null}
- -t 1.130112 -s 0 -d 2 -p tcp -e 1540 -c 0 -i 36 -a 0 -x {0.0 3.0 11 ------- null}
h -t 1.130112 -s 0 -d 2 -p tcp -e 1540 -c 0 -i 36 -a 0 -x {0.0 3.0 -1 ------- null}
r -t 1.131344 -s 2 -d 1 -p ack -e 40 -c 0 -i 25 -a 0 -x {3.1 1.0 5 ------- null}
+ -t 1.131344 -s 1 -d 2 -p tcp -e 1540 -c 0 -i 38 -a 0 -x {1.0 3.1 11 ------- null}
+ -t 1.131344 -s 1 -d 2 -p tcp -e 1540 -c 0 -i 39 -a 0 -x {1.0 3.1 12 ------- null}
- -t 1.131344 -s 1 -d 2 -p tcp -e 1540 -c 0 -i 38 -a 0 -x {1.0 3.1 11 ------- null}
h -t 1.131344 -s 1 -d 2 -p tcp -e 1540 -c 0 -i 38 -a 0 -x {1.0 3.1 -1 ------- null}
- -t 1.131344 -s 0 -d 2 -p tcp -e 1540 -c 0 -i 37 -a 0 -x {0.0 3.0 12 ------- null}
h -t 1.131344 -s 0 -d 2 -p tcp -e 1540 -c 0 -i 37 -a 0 -x {0.0 3.0 -1 ------- null}
r -t 1.132576 -s 2 -d 0 -p ack -e 40 -c 0 -i 26 -a 0 -x {3.0 0.0 6 ------- null}
+ -t 1.132576 -s 0 -d 2 -p tcp -e 1540 -c 0 -i 40 -a 0 -x {0.0 3.0 13 ------- null}
+ -t 1.132576 -s 0 -d 2 -p tcp -e 1540 -c 0 -i 41 -a 0 -x {0.0 3.0 14 ------- null}
- -t 1.132576 -s 1 -d 2 -p tcp -e 1540 -c 0 -i 39 -a 0 -x {1.0 3.1 12 ------- null}
h -t 1.132576 -s 1 -d 2 -p tcp -e 1540 -c 0 -i 39 -a 0 -x {1.0 3.1 -1 ------- null}
- -t 1.132576 -s 0 -d 2 -p tcp -e 1540 -c 0 -i 40 -a 0 -x {0.0 3.0 13 ------- null}
h -t 1.132576 -s 0 -d 2 -p tcp -e 1540 -c 0 -i 40 -a 0 -x {0.0 3.0 -1 ------- null}
r -t 1.133808 -s 2 -d 1 -p ack -e 40 -c 0 -i 27 -a 0 -x {3.1 1.0 6 ------- null}
+ -t 1.133808 -s 1 -d 2 -p tcp -e 1540 -c 0 -i 42 -a 0 -x {1.0 3.1 13 ------- null}
+ -t 1.133808 -s 1 -d 2 -p tcp -e 1540 -c 0 -i 43 -a 0 -x {1.0 3.1 14 ------- null}
- -t 1.133808 -s 1 -d 2 -p tcp -e 1540 -c 0 -i 42 -a 0 -x {1.0 3.1 13 ------- null}
h -t 1.133808 -s 1 -d 2 -p tcp -e 1540 -c 0 -i 42 -a 0 -x {1.0 3.1 -1 ------- null}
- -t 1.133808 -s 0 -d 2 -p tcp -e 1540 -c 0 -i 41 -a 0 -x {0.0 3.0 14 ------- null}
h -t 1.133808 -s 0 -d 2 -p tcp -e 1540 -c 0 -i 41 -a 0 -x {0.0 3.0 -1 ------- null}
- -t 1.13504 -s 1 -d 2 -p tcp -e 1540 -c 0 -i 43 -a 0 -x {1.0 3.1 14 ------- null}
h -t 1.13504 -s 1 -d 2 -p tcp -e 1540 -c 0 -i 43 -a 0 -x {1.0 3.1 -1 ------- null}
r -t 1.136416 -s 0 -d 2 -p tcp -e 1540 -c 0 -i 28 -a 0 -x {0.0 3.0 7 ------- null}
+ -t 1.136416 -s 2 -d 3 -p tcp -e 1540 -c 0 -i 28 -a 0 -x {0.0 3.0 7 ------- null}
- -t 1.136416 -s 2 -d 3 -p tcp -e 1540 -c 0 -i 28 -a 0 -x {0.0 3.0 7 ------- null}
h -t 1.136416 -s 2 -d 3 -p tcp -e 1540 -c 0 -i 28 -a 0 -x {0.0 3.0 -1 ------- null}
r -t 1.137648 -s 1 -d 2 -p tcp -e 1540 -c 0 -i 30 -a 0 -x {1.0 3.1 7 ------- null}
+ -t 1.137648 -s 2 -d 3 -p tcp -e 1540 -c 0 -i 30 -a 0 -x {1.0 3.1 7 ------- null}
r -t 1.137648 -s 0 -d 2 -p tcp -e 1540 -c 0 -i 29 -a 0 -x {0.0 3.0 8 ------- null}
+ -t 1.137648 -s 2 -d 3 -p tcp -e 1540 -c 0 -i 29 -a 0 -x {0.0 3.0 8 ------- null}
- -t 1.137648 -s 2 -d 3 -p tcp -e 1540 -c 0 -i 30 -a 0 -x {1.0 3.1 7 ------- null}
h -t 1.137648 -s 2 -d 3 -p tcp -e 1540 -c 0 -i 30 -a 0 -x {1.0 3.1 -1 ------- null}
r -t 1.13888 -s 1 -d 2 -p tcp -e 1540 -c 0 -i 31 -a 0 -x {1.0 3.1 8 ------- null}
+ -t 1.13888 -s 2 -d 3 -p tcp -e 1540 -c 0 -i 31 -a 0 -x {1.0 3.1 8 ------- null}
r -t 1.13888 -s 0 -d 2 -p tcp -e 1540 -c 0 -i 32 -a 0 -x {0.0 3.0 9 ------- null}
+ -t 1.13888 -s 2 -d 3 -p tcp -e 1540 -c 0 -i 32 -a 0 -x {0.0 3.0 9 ------- null}
- -t 1.13888 -s 2 -d 3 -p tcp -e 1540 -c 0 -i 29 -a 0 -x {0.0 3.0 8 ------- null}
h -t 1.13888 -s 2 -d 3 -p tcp -e 1540 -c 0 -i 29 -a 0 -x {0.0 3.0 -1 ------- null}
r -t 1.140112 -s 1 -d 2 -p tcp -e 1540 -c 0 -i 34 -a 0 -x {1.0 3.1 9 ------- null}
+ -t 1.140112 -s 2 -d 3 -p tcp -e 1540 -c 0 -i 34 -a 0 -x {1.0 3.1 9 ------- null}
r -t 1.140112 -s 0 -d 2 -p tcp -e 1540 -c 0 -i 33 -a 0 -x {0.0 3.0 10 ------- null}
+ -t 1.140112 -s 2 -d 3 -p tcp -e 1540 -c 0 -i 33 -a 0 -x {0.0 3.0 10 ------- null}
- -t 1.140112 -s 2 -d 3 -p tcp -e 1540 -c 0 -i 31 -a 0 -x {1.0 3.1 8 ------- null}
h -t 1.140112 -s 2 -d 3 -p tcp -e 1540 -c 0 -i 31 -a 0 -x {1.0 3.1 -1 ------- null}
r -t 1.141344 -s 1 -d 2 -p tcp -e 1540 -c 0 -i 35 -a 0 -x {1.0 3.1 10 ------- null}
+ -t 1.141344 -s 2 -d 3 -p tcp -e 1540 -c 0 -i 35 -a 0 -x {1.0 3.1 10 ------- null}
r -t 1.141344 -s 0 -d 2 -p tcp -e 1540 -c 0 -i 36 -a 0 -x {0.0 3.0 11 ------- null}
+ -t 1.141344 -s 2 -d 3 -p tcp -e 1540 -c 0 -i 36 -a 0 -x {0.0 3.0 11 ------- null}
- -t 1.141344 -s 2 -d 3 -p tcp -e 1540 -c 0 -i 32 -a 0 -x {0.0 3.0 9 ------- null}
h -t 1.141344 -s 2 -d 3 -p tcp -e 1540 -c 0 -i 32 -a 0 -x {0.0 3.0 -1 ------- null}
r -t 1.142576 -s 1 -d 2 -p tcp -e 1540 -c 0 -i 38 -a 0 -x {1.0 3.1 11 ------- null}
+ -t 1.142576 -s 2 -d 3 -p tcp -e 1540 -c 0 -i 38 -a 0 -x {1.0 3.1 11 ------- null}
r -t 1.142576 -s 0 -d 2 -p tcp -e 1540 -c 0 -i 37 -a 0 -x {0.0 3.0 12 ------- null}
+ -t 1.142576 -s 2 -d 3 -p tcp -e 1540 -c 0 -i 37 -a 0 -x {0.0 3.0 12 ------- null}
- -t 1.142576 -s 2 -d 3 -p tcp -e 1540 -c 0 -i 34 -a 0 -x {1.0 3.1 9 ------- null}
h -t 1.142576 -s 2 -d 3 -p tcp -e 1540 -c 0 -i 34 -a 0 -x {1.0 3.1 -1 ------- null}
r -t 1.143808 -s 1 -d 2 -p tcp -e 1540 -c 0 -i 39 -a 0 -x {1.0 3.1 12 ------- null}
+ -t 1.143808 -s 2 -d 3 -p tcp -e 1540 -c 0 -i 39 -a 0 -x {1.0 3.1 12 ------- null}
r -t 1.143808 -s 0 -d 2 -p tcp -e 1540 -c 0 -i 40 -a 0 -x {0.0 3.0 13 ------- null}
+ -t 1.143808 -s 2 -d 3 -p tcp -e 1540 -c 0 -i 40 -a 0 -x {0.0 3.0 13 ------- null}
- -t 1.143808 -s 2 -d 3 -p tcp -e 1540 -c 0 -i 33 -a 0 -x {0.0 3.0 10 ------- null}
h -t 1.143808 -s 2 -d 3 -p tcp -e 1540 -c 0 -i 33 -a 0 -x {0.0 3.0 -1 ------- null}
r -t 1.14504 -s 1 -d 2 -p tcp -e 1540 -c 0 -i 42 -a 0 -x {1.0 3.1 13 ------- null}
+ -t 1.14504 -s 2 -d 3 -p tcp -e 1540 -c 0 -i 42 -a 0 -x {1.0 3.1 13 ------- null}
r -t 1.14504 -s 0 -d 2 -p tcp -e 1540 -c 0 -i 41 -a 0 -x {0.0 3.0 14 ------- null}
+ -t 1.14504 -s 2 -d 3 -p tcp -e 1540 -c 0 -i 41 -a 0 -x {0.0 3.0 14 ------- null}
- -t 1.14504 -s 2 -d 3 -p tcp -e 1540 -c 0 -i 35 -a 0 -x {1.0 3.1 10 ------- null}
h -t 1.14504 -s 2 -d 3 -p tcp -e 1540 -c 0 -i 35 -a 0 -x {1.0 3.1 -1 ------- null}
r -t 1.146272 -s 1 -d 2 -p tcp -e 1540 -c 0 -i 43 -a 0 -x {1.0 3.1 14 ------- null}
+ -t 1.146272 -s 2 -d 3 -p tcp -e 1540 -c 0 -i 43 -a 0 -x {1.0 3.1 14 ------- null}
- -t 1.146272 -s 2 -d 3 -p tcp -e 1540 -c 0 -i 36 -a 0 -x {0.0 3.0 11 ------- null}
h -t 1.146272 -s 2 -d 3 -p tcp -e 1540 -c 0 -i 36 -a 0 -x {0.0 3.0 -1 ------- null}
- -t 1.147504 -s 2 -d 3 -p tcp -e 1540 -c 0 -i 38 -a 0 -x {1.0 3.1 11 ------- null}
h -t 1.147504 -s 2 -d 3 -p tcp -e 1540 -c 0 -i 38 -a 0 -x {1.0 3.1 -1 ------- null}
r -t 1.147648 -s 2 -d 3 -p tcp -e 1540 -c 0 -i 28 -a 0 -x {0.0 3.0 7 ------- null}
+ -t 1.147648 -s 3 -d 2 -p ack -e 40 -c 0 -i 44 -a 0 -x {3.0 0.0 7 ------- null}
- -t 1.147648 -s 3 -d 2 -p ack -e 40 -c 0 -i 44 -a 0 -x {3.0 0.0 7 ------- null}
h -t 1.147648 -s 3 -d 2 -p ack -e 40 -c 0 -i 44 -a 0 -x {3.0 0.0 -1 ------- null}
- -t 1.148736 -s 2 -d 3 -p tcp -e 1540 -c 0 -i 37 -a 0 -x {0.0 3.0 12 ------- null}
h -t 1.148736 -s 2 -d 3 -p tcp -e 1540 -c 0 -i 37 -a 0 -x {0.0 3.0 -1 ------- null}
r -t 1.14888 -s 2 -d 3 -p tcp -e 1540 -c 0 -i 30 -a 0 -x {1.0 3.1 7 ------- null}
+ -t 1.14888 -s 3 -d 2 -p ack -e 40 -c 0 -i 45 -a 0 -x {3.1 1.0 7 ------- null}
- -t 1.14888 -s 3 -d 2 -p ack -e 40 -c 0 -i 45 -a 0 -x {3.1 1.0 7 ------- null}
h -t 1.14888 -s 3 -d 2 -p ack -e 40 -c 0 -i 45 -a 0 -x {3.1 1.0 -1 ------- null}
- -t 1.149968 -s 2 -d 3 -p tcp -e 1540 -c 0 -i 39 -a 0 -x {1.0 3.1 12 ------- null}
h -t 1.149968 -s 2 -d 3 -p tcp -e 1540 -c 0 -i 39 -a 0 -x {1.0 3.1 -1 ------- null}
r -t 1.150112 -s 2 -d 3 -p tcp -e 1540 -c 0 -i 29 -a 0 -x {0.0 3.0 8 ------- null}
+ -t 1.150112 -s 3 -d 2 -p ack -e 40 -c 0 -i 46 -a 0 -x {3.0 0.0 8 ------- null}
- -t 1.150112 -s 3 -d 2 -p ack -e 40 -c 0 -i 46 -a 0 -x {3.0 0.0 8 ------- null}
h -t 1.150112 -s 3 -d 2 -p ack -e 40 -c 0 -i 46 -a 0 -x {3.0 0.0 -1 ------- null}
- -t 1.1512 -s 2 -d 3 -p tcp -e 1540 -c 0 -i 40 -a 0 -x {0.0 3.0 13 ------- null}
h -t 1.1512 -s 2 -d 3 -p tcp -e 1540 -c 0 -i 40 -a 0 -x {0.0 3.0 -1 ------- null}
r -t 1.151344 -s 2 -d 3 -p tcp -e 1540 -c 0 -i 31 -a 0 -x {1.0 3.1 8 ------- null}
+ -t 1.151344 -s 3 -d 2 -p ack -e 40 -c 0 -i 47 -a 0 -x {3.1 1.0 8 ------- null}
- -t 1.151344 -s 3 -d 2 -p ack -e 40 -c 0 -i 47 -a 0 -x {3.1 1.0 8 ------- null}
h -t 1.151344 -s 3 -d 2 -p ack -e 40 -c 0 -i 47 -a 0 -x {3.1 1.0 -1 ------- null}
- -t 1.152432 -s 2 -d 3 -p tcp -e 1540 -c 0 -i 42 -a 0 -x {1.0 3.1 13 ------- null}
h -t 1.152432 -s 2 -d 3 -p tcp -e 1540 -c 0 -i 42 -a 0 -x {1.0 3.1 -1 ------- null}
r -t 1.152576 -s 2 -d 3 -p tcp -e 1540 -c 0 -i 32 -a 0 -x {0.0 3.0 9 ------- null}
+ -t 1.152576 -s 3 -d 2 -p ack -e 40 -c 0 -i 48 -a 0 -x {3.0 0.0 9 ------- null}
- -t 1.152576 -s 3 -d 2 -p ack -e 40 -c 0 -i 48 -a 0 -x {3.0 0.0 9 ------- null}
h -t 1.152576 -s 3 -d 2 -p ack -e 40 -c 0 -i 48 -a 0 -x {3.0 0.0 -1 ------- null}
- -t 1.153664 -s 2 -d 3 -p tcp -e 1540 -c 0 -i 41 -a 0 -x {0.0 3.0 14 ------- null}
h -t 1.153664 -s 2 -d 3 -p tcp -e 1540 -c 0 -i 41 -a 0 -x {0.0 3.0 -1 ------- null}
r -t 1.153808 -s 2 -d 3 -p tcp -e 1540 -c 0 -i 34 -a 0 -x {1.0 3.1 9 ------- null}
+ -t 1.153808 -s 3 -d 2 -p ack -e 40 -c 0 -i 49 -a 0 -x {3.1 1.0 9 ------- null}
- -t 1.153808 -s 3 -d 2 -p ack -e 40 -c 0 -i 49 -a 0 -x {3.1 1.0 9 ------- null}
h -t 1.153808 -s 3 -d 2 -p ack -e 40 -c 0 -i 49 -a 0 -x {3.1 1.0 -1 ------- null}
- -t 1.154896 -s 2 -d 3 -p tcp -e 1540 -c 0 -i 43 -a 0 -x {1.0 3.1 14 ------- null}