d 1 0 2 tcp 40 ------- 0 0.0 4.0 0 0
+ 1 1 2 cbr 1000 ------- 0 1.0 5.0 0 1
- 1 1 2 cbr 1000 ------- 0 1.0 5.0 0 1
+ 1.008 1 2 cbr 1000 ------- 0 1.0 5.0 1 2
- 1.008 1 2 cbr 1000 ------- 0 1.0 5.0 1 2
r 1.01008 1 2 cbr 1000 ------- 0 1.0 5.0 0 1
+ 1.01008 2 3 cbr 1000 ------- 0 1.0 5.0 0 1
- 1.01008 2 3 cbr 1000 ------- 0 1.0 5.0 0 1
+ 1.016 1 2 cbr 1000 ------- 0 1.0 5.0 2 3
- 1.016 1 2 cbr 1000 ------- 0 1.0 5.0 2 3
r 1.01808 1 2 cbr 1000 ------- 0 1.0 5.0 1 2
+ 1.01808 2 3 cbr 1000 ------- 0 1.0 5.0 1 2
- 1.01808 2 3 cbr 1000 ------- 0 1.0 5.0 1 2
r 1.02016 2 3 cbr 1000 ------- 0 1.0 5.0 0 1
h 1.02016 3 7 cbr 1000 ------- 0 1.0 5.0 0 1
+ 1.024 1 2 cbr 1000 ------- 0 1.0 5.0 3 4
- 1.024 1 2 cbr 1000 ------- 0 1.0 5.0 3 4
r 1.02608 1 2 cbr 1000 ------- 0 1.0 5.0 2 3
+ 1.02608 2 3 cbr 1000 ------- 0 1.0 5.0 2 3
- 1.02608 2 3 cbr 1000 ------- 0 1.0 5.0 2 3
r 1.02816 2 3 cbr 1000 ------- 0 1.0 5.0 1 2
h 1.02816 3 7 cbr 1000 ------- 0 1.0 5.0 1 2
+ 1.03016 3 7 cbr 1000 ------- 0 1.0 5.0 0 1
- 1.03016 3 7 cbr 1000 ------- 0 1.0 5.0 0 1
+ 1.032 1 2 cbr 1000 ------- 0 1.0 5.0 4 5
- 1.032 1 2 cbr 1000 ------- 0 1.0 5.0 4 5
r 1.03408 1 2 cbr 1000 ------- 0 1.0 5.0 3 4
+ 1.03408 2 3 cbr 1000 ------- 0 1.0 5.0 3 4
- 1.03408 2 3 cbr 1000 ------- 0 1.0 5.0 3 4
r 1.03616 2 3 cbr 1000 ------- 0 1.0 5.0 2 3
h 1.03616 3 7 cbr 1000 ------- 0 1.0 5.0 2 3
+ 1.03816 3 7 cbr 1000 ------- 0 1.0 5.0 1 2
- 1.03816 3 7 cbr 1000 ------- 0 1.0 5.0 1 2
+ 1.04 1 2 cbr 1000 ------- 0 1.0 5.0 5 6
- 1.04 1 2 cbr 1000 ------- 0 1.0 5.0 5 6
r 1.040975 7 5 cbr 1000 ------- 0 1.0 5.0 0 1
r 1.04208 1 2 cbr 1000 ------- 0 1.0 5.0 4 5
+ 1.04208 2 3 cbr 1000 ------- 0 1.0 5.0 4 5
- 1.04208 2 3 cbr 1000 ------- 0 1.0 5.0 4 5
r 1.04416 2 3 cbr 1000 ------- 0 1.0 5.0 3 4
h 1.04416 3 7 cbr 1000 ------- 0 1.0 5.0 3 4
+ 1.04616 3 7 cbr 1000 ------- 0 1.0 5.0 2 3
- 1.04616 3 7 cbr 1000 ------- 0 1.0 5.0 2 3
+ 1.048 1 2 cbr 1000 ------- 0 1.0 5.0 6 7
- 1.048 1 2 cbr 1000 ------- 0 1.0 5.0 6 7
r 1.048975 7 5 cbr 1000 ------- 0 1.0 5.0 1 2
r 1.05008 1 2 cbr 1000 ------- 0 1.0 5.0 5 6
+ 1.05008 2 3 cbr 1000 ------- 0 1.0 5.0 5 6
- 1.05008 2 3 cbr 1000 ------- 0 1.0 5.0 5 6
r 1.05216 2 3 cbr 1000 ------- 0 1.0 5.0 4 5
h 1.05216 3 7 cbr 1000 ------- 0 1.0 5.0 4 5
+ 1.05416 3 7 cbr 1000 ------- 0 1.0 5.0 3 4
- 1.05416 3 7 cbr 1000 ------- 0 1.0 5.0 3 4
+ 1.056 1 2 cbr 1000 ------- 0 1.0 5.0 7 8
- 1.056 1 2 cbr 1000 ------- 0 1.0 5.0 7 8
r 1.056975 7 5 cbr 1000 ------- 0 1.0 5.0 2 3
r 1.05808 1 2 cbr 1000 ------- 0 1.0 5.0 6 7
+ 1.05808 2 3 cbr 1000 ------- 0 1.0 5.0 6 7
- 1.05808 2 3 cbr 1000 ------- 0 1.0 5.0 6 7
r 1.06016 2 3 cbr 1000 ------- 0 1.0 5.0 5 6
h 1.06016 3 7 cbr 1000 ------- 0 1.0 5.0 5 6
+ 1.06216 3 7 cbr 1000 ------- 0 1.0 5.0 4 5
- 1.06216 3 7 cbr 1000 ------- 0 1.0 5.0 4 5
+ 1.064 1 2 cbr 1000 ------- 0 1.0 5.0 8 9
- 1.064 1 2 cbr 1000 ------- 0 1.0 5.0 8 9
r 1.064975 7 5 cbr 1000 ------- 0 1.0 5.0 3 4
r 1.06608 1 2 cbr 1000 ------- 0 1.0 5.0 7 8
+ 1.06608 2 3 cbr 1000 ------- 0 1.0 5.0 7 8
- 1.06608 2 3 cbr 1000 ------- 0 1.0 5.0 7 8
r 1.06816 2 3 cbr 1000 ------- 0 1.0 5.0 6 7
h 1.06816 3 7 cbr 1000 ------- 0 1.0 5.0 6 7
+ 1.07016 3 7 cbr 1000 ------- 0 1.0 5.0 5 6
- 1.07016 3 7 cbr 1000 ------- 0 1.0 5.0 5 6
+ 1.072 1 2 cbr 1000 ------- 0 1.0 5.0 9 10
- 1.072 1 2 cbr 1000 ------- 0 1.0 5.0 9 10
r 1.072975 7 5 cbr 1000 ------- 0 1.0 5.0 4 5
r 1.07408 1 2 cbr 1000 ------- 0 1.0 5.0 8 9
+ 1.07408 2 3 cbr 1000 ------- 0 1.0 5.0 8 9
- 1.07408 2 3 cbr 1000 ------- 0 1.0 5.0 8 9
r 1.07616 2 3 cbr 1000 ------- 0 1.0 5.0 7 8
h 1.07616 3 7 cbr 1000 ------- 0 1.0 5.0 7 8
+ 1.07816 3 7 cbr 1000 ------- 0 1.0 5.0 6 7
- 1.07816 3 7 cbr 1000 ------- 0 1.0 5.0 6 7
+ 1.08 1 2 cbr 1000 ------- 0 1.0 5.0 10 11
- 1.08 1 2 cbr 1000 ------- 0 1.0 5.0 10 11
r 1.080975 7 5 cbr 1000 ------- 0 1.0 5.0 5 6
r 1.08208 1 2 cbr 1000 ------- 0 1.0 5.0 9 10
+ 1.08208 2 3 cbr 1000 ------- 0 1.0 5.0 9 10
- 1.08208 2 3 cbr 1000 ------- 0 1.0 5.0 9 10
r 1.08416 2 3 cbr 1000 ------- 0 1.0 5.0 8 9
h 1.08416 3 7 cbr 1000 ------- 0 1.0 5.0 8 9
+ 1.08616 3 7 cbr 1000 ------- 0 1.0 5.0 7 8
- 1.08616 3 7 cbr 1000 ------- 0 1.0 5.0 7 8
+ 1.088 1 2 cbr 1000 ------- 0 1.0 5.0 11 12
- 1.088 1 2 cbr 1000 ------- 0 1.0 5.0 11 12
r 1.088975 7 5 cbr 1000 ------- 0 1.0 5.0 6 7
r 1.09008 1 2 cbr 1000 ------- 0 1.0 5.0 10 11
+ 1.09008 2 3 cbr 1000 ------- 0 1.0 5.0 10 11
- 1.09008 2 3 cbr 1000 ------- 0 1.0 5.0 10 11
r 1.09216 2 3 cbr 1000 ------- 0 1.0 5.0 9 10
h 1.09216 3 7 cbr 1000 ------- 0 1.0 5.0 9 10
+ 1.09416 3 7 cbr 1000 ------- 0 1.0 5.0 8 9
- 1.09416 3 7 cbr 1000 ------- 0 1.0 5.0 8 9
+ 1.096 1 2 cbr 1000 ------- 0 1.0 5.0 12 13
- 1.096 1 2 cbr 1000 ------- 0 1.0 5.0 12 13
r 1.096975 7 5 cbr 1000 ------- 0 1.0 5.0 7 8
r 1.09808 1 2 cbr 1000 ------- 0 1.0 5.0 11 12
+ 1.09808 2 3 cbr 1000 ------- 0 1.0 5.0 11 12
- 1.09808 2 3 cbr 1000 ------- 0 1.0 5.0 11 12
r 1.10016 2 3 cbr 1000 ------- 0 1.0 5.0 10 11
h 1.10016 3 7 cbr 1000 ------- 0 1.0 5.0 10 11
+ 1.10216 3 7 cbr 1000 ------- 0 1.0 5.0 9 10
- 1.10216 3 7 cbr 1000 ------- 0 1.0 5.0 9 10
+ 1.104 1 2 cbr 1000 ------- 0 1.0 5.0 13 14
- 1.104 1 2 cbr 1000 ------- 0 1.0 5.0 13 14
r 1.104975 7 5 cbr 1000 ------- 0 1.0 5.0 8 9
r 1.10608 1 2 cbr 1000 ------- 0 1.0 5.0 12 13
+ 1.10608 2 3 cbr 1000 ------- 0 1.0 5.0 12 13
- 1.10608 2 3 cbr 1000 ------- 0 1.0 5.0 12 13
r 1.10816 2 3 cbr 1000 ------- 0 1.0 5.0 11 12
h 1.10816 3 7 cbr 1000 ------- 0 1.0 5.0 11 12
+ 1.11016 3 7 cbr 1000 ------- 0 1.0 5.0 10 11
- 1.11016 3 7 cbr 1000 ------- 0 1.0 5.0 10 11
+ 1.112 1 2 cbr 1000 ------- 0 1.0 5.0 14 15
- 1.112 1 2 cbr 1000 ------- 0 1.0 5.0 14 15
r 1.112975 7 5 cbr 1000 ------- 0 1.0 5.0 9 10
r 1.11408 1 2 cbr 1000 ------- 0 1.0 5.0 13 14
+ 1.11408 2 3 cbr 1000 ------- 0 1.0 5.0 13 14
- 1.11408 2 3 cbr 1000 ------- 0 1.0 5.0 13 14
r 1.11616 2 3 cbr 1000 ------- 0 1.0 5.0 12 13
h 1.11616 3 7 cbr 1000 ------- 0 1.0 5.0 12 13
+ 1.11816 3 7 cbr 1000 ------- 0 1.0 5.0 11 12
- 1.11816 3 7 cbr 1000 ------- 0 1.0 5.0 11 12
+ 1.12 1 2 cbr 1000 ------- 0 1.0 5.0 15 16
- 1.12 1 2 cbr 1000 ------- 0 1.0 5.0 15 16
r 1.120975 7 5 cbr 1000 ------- 0 1.0 5.0 10 11
r 1.12208 1 2 cbr 1000 ------- 0 1.0 5.0 14 15
+ 1.12208 2 3 cbr 1000 ------- 0 1.0 5.0 14 15
- 1.12208 2 3 cbr 1000 ------- 0 1.0 5.0 14 15
r 1.12416 2 3 cbr 1000 ------- 0 1.0 5.0 13 14
h 1.12416 3 7 cbr 1000 ------- 0 1.0 5.0 13 14
+ 1.12616 3 7 cbr 1000 ------- 0 1.0 5.0 12 13
- 1.12616 3 7 cbr 1000 ------- 0 1.0 5.0 12 13
+ 1.128 1 2 cbr 1000 ------- 0 1.0 5.0 16 17
- 1.128 1 2 cbr 1000 ------- 0 1.0 5.0 16 17
r 1.128975 7 5 cbr 1000 ------- 0 1.0 5.0 11 12
r 1.13008 1 2 cbr 1000 ------- 0 1.0 5.0 15 16
+ 1.13008 2 3 cbr 1000 ------- 0 1.0 5.0 15 16
- 1.13008 2 3 cbr 1000 ------- 0 1.0 5.0 15 16
r 1.13216 2 3 cbr 1000 ------- 0 1.0 5.0 14 15
h 1.13216 3 7 cbr 1000 ------- 0 1.0 5.0 14 15
+ 1.13416 3 7 cbr 1000 ------- 0 1.0 5.0 13 14
- 1.13416 3 7 cbr 1000 ------- 0 1.0 5.0 13 14
+ 1.136 1 2 cbr 1000 ------- 0 1.0 5.0 17 18
- 1.136 1 2 cbr 1000 ------- 0 1.0 5.0 17 18
r 1.136975 7 5 cbr 1000 ------- 0 1.0 5.0 12 13
r 1.13808 1 2 cbr 1000 ------- 0 1.0 5.0 16 17
+ 1.13808 2 3 cbr 1000 ------- 0 1.0 5.0 16 17
- 1.13808 2 3 cbr 1000 ------- 0 1.0 5.0 16 17
r 1.14016 2 3 cbr 1000 ------- 0 1.0 5.0 15 16
h 1.14016 3 7 cbr 1000 ------- 0 1.0 5.0 15 16
+ 1.14216 3 7 cbr 1000 ------- 0 1.0 5.0 14 15
- 1.14216 3 7 cbr 1000 ------- 0 1.0 5.0 14 15
+ 1.144 1 2 cbr 1000 ------- 0 1.0 5.0 18 19
- 1.144 1 2 cbr 1000 ------- 0 1.0 5.0 18 19
r 1.144975 7 5 cbr 1000 ------- 0 1.0 5.0 13 14
r 1.14608 1 2 cbr 1000 ------- 0 1.0 5.0 17 18
+ 1.14608 2 3 cbr 1000 ------- 0 1.0 5.0 17 18
- 1.14608 2 3 cbr 1000 ------- 0 1.0 5.0 17 18
r 1.14816 2 3 cbr 1000 ------- 0 1.0 5.0 16 17
h 1.14816 3 7 cbr 1000 ------- 0 1.0 5.0 16 17
+ 1.15016 3 7 cbr 1000 ------- 0 1.0 5.0 15 16
- 1.15016 3 7 cbr 1000 ------- 0 1.0 5.0 15 16
+ 1.152 1 2 cbr 1000 ------- 0 1.0 5.0 19 20
- 1.152 1 2 cbr 1000 ------- 0 1.0 5.0 19 20
r 1.152975 7 5 cbr 1000 ------- 0 1.0 5.0 14 15
r 1.15408 1 2 cbr 1000 ------- 0 1.0 5.0 18 19
+ 1.15408 2 3 cbr 1000 ------- 0 1.0 5.0 18 19
- 1.15408 2 3 cbr 1000 ------- 0 1.0 5.0 18 19
r 1.15616 2 3 cbr 1000 ------- 0 1.0 5.0 17 18
h 1.15616 3 7 cbr 1000 ------- 0 1.0 5.0 17 18
+ 1.15816 3 7 cbr 1000 ------- 0 1.0 5.0 16 17
- 1.15816 3 7 cbr 1000 ------- 0 1.0 5.0 16 17
+ 1.16 1 2 cbr 1000 ------- 0 1.0 5.0 20 21
- 1.16 1 2 cbr 1000 ------- 0 1.0 5.0 20 21
r 1.160975 7 5 cbr 1000 ------- 0 1.0 5.0 15 16
r 1.16208 1 2 cbr 1000 ------- 0 1.0 5.0 19 20
+ 1.16208 2 3 cbr 1000 ------- 0 1.0 5.0 19 20
- 1.16208 2 3 cbr 1000 ------- 0 1.0 5.0 19 20
r 1.16416 2 3 cbr 1000 ------- 0 1.0 5.0 18 19
h 1.16416 3 7 cbr 1000 ------- 0 1.0 5.0 18 19
+ 1.16616 3 7 cbr 1000 ------- 0 1.0 5.0 17 18
- 1.16616 3 7 cbr 1000 ------- 0 1.0 5.0 17 18
+ 1.168 1 2 cbr 1000 ------- 0 1.0 5.0 21 22
- 1.168 1 2 cbr 1000 ------- 0 1.0 5.0 21 22
r 1.168975 7 5 cbr 1000 ------- 0 1.0 5.0 16 17
r 1.17008 1 2 cbr 1000 ------- 0 1.0 5.0 20 21
+ 1.17008 2 3 cbr 1000 ------- 0 1.0 5.0 20 21
- 1.17008 2 3 cbr 1000 ------- 0 1.0 5.0 20 21
r 1.17216 2 3 cbr 1000 ------- 0 1.0 5.0 19 20
h 1.17216 3 7 cbr 1000 ------- 0 1.0 5.0 19 20
+ 1.17416 3 7 cbr 1000 ------- 0 1.0 5.0 18 19
- 1.17416 3 7 cbr 1000 ------- 0 1.0 5.0 18 19
+ 1.176 1 2 cbr 1000 ------- 0 1.0 5.0 22 23
- 1.176 1 2 cbr 1000 ------- 0 1.0 5.0 22 23
r 1.176975 7 5 cbr 1000 ------- 0 1.0 5.0 17 18
r 1.17808 1 2 cbr 1000 ------- 0 1.0 5.0 21 22
+ 1.17808 2 3 cbr 1000 ------- 0 1.0 5.0 21 22
- 1.17808 2 3 cbr 1000 ------- 0 1.0 5.0 21 22
r 1.18016 2 3 cbr 1000 ------- 0 1.0 5.0 20 21
h 1.18016 3 7 cbr 1000 ------- 0 1.0 5.0 20 21
+ 1.18216 3 7 cbr 1000 ------- 0 1.0 5.0 19 20
- 1.18216 3 7 cbr 1000 ------- 0 1.0 5.0 19 20
+ 1.184 1 2 cbr 1000 ------- 0 1.0 5.0 23 24
- 1.184 1 2 cbr 1000 ------- 0 1.0 5.0 23 24
r 1.184975 7 5 cbr 1000 ------- 0 1.0 5.0 18 19
r 1.18608 1 2 cbr 1000 ------- 0 1.0 5.0 22 23
+ 1.18608 2 3 cbr 1000 ------- 0 1.0 5.0 22 23
- 1.18608 2 3 cbr 1000 ------- 0 1.0 5.0 22 23
r 1.18816 2 3 cbr 1000 ------- 0 1.0 5.0 21 22
h 1.18816 3 7 cbr 1000 ------- 0 1.0 5.0 21 22
+ 1.19016 3 7 cbr 1000 ------- 0 1.0 5.0 20 21
- 1.19016 3 7 cbr 1000 ------- 0 1.0 5.0 20 21
+ 1.192 1 2 cbr 1000 ------- 0 1.0 5.0 24 25
- 1.192 1 2 cbr 1000 ------- 0 1.0 5.0 24 25
r 1.192975 7 5 cbr 1000 ------- 0 1.0 5.0 19 20
r 1.19408 1 2 cbr 1000 ------- 0 1.0 5.0 23 24
+ 1.19408 2 3 cbr 1000 ------- 0 1.0 5.0 23 24
- 1.19408 2 3 cbr 1000 ------- 0 1.0 5.0 23 24
r 1.19616 2 3 cbr 1000 ------- 0 1.0 5.0 22 23
h 1.19616 3 7 cbr 1000 ------- 0 1.0 5.0 22 23
+ 1.19816 3 7 cbr 1000 ------- 0 1.0 5.0 21 22
- 1.19816 3 7 cbr 1000 ------- 0 1.0 5.0 21 22
+ 1.2 1 2 cbr 1000 ------- 0 1.0 5.0 25 26
- 1.2 1 2 cbr 1000 ------- 0 1.0 5.0 25 26
r 1.200975 7 5 cbr 1000 ------- 0 1.0 5.0 20 21
r 1.20208 1 2 cbr 1000 ------- 0 1.0 5.0 24 25
+ 1.20208 2 3 cbr 1000 ------- 0 1.0 5.0 24 25
- 1.20208 2 3 cbr 1000 ------- 0 1.0 5.0 24 25
r 1.20416 2 3 cbr 1000 ------- 0 1.0 5.0 23 24
h 1.20416 3 7 cbr 1000 ------- 0 1.0 5.0 23 24
+ 1.20616 3 7 cbr 1000 ------- 0 1.0 5.0 22 23
- 1.20616 3 7 cbr 1000 ------- 0 1.0 5.0 22 23
+ 1.208 1 2 cbr 1000 ------- 0 1.0 5.0 26 27
- 1.208 1 2 cbr 1000 ------- 0 1.0 5.0 26 27
r 1.208975 7 5 cbr 1000 ------- 0 1.0 5.0 21 22
r 1.21008 1 2 cbr 1000 ------- 0 1.0 5.0 25 26
+ 1.21008 2 3 cbr 1000 ------- 0 1.0 5.0 25 26
- 1.21008 2 3 cbr 1000 ------- 0 1.0 5.0 25 26
r 1.21216 2 3 cbr 1000 ------- 0 1.0 5.0 24 25
h 1.21216 3 7 cbr 1000 ------- 0 1.0 5.0 24 25
+ 1.21416 3 7 cbr 1000 ------- 0 1.0 5.0 23 24
- 1.21416 3 7 cbr 1000 ------- 0 1.0 5.0 23 24
+ 1.216 1 2 cbr 1000 ------- 0 1.0 5.0 27 28
- 1.216 1 2 cbr 1000 ------- 0 1.0 5.0 27 28
r 1.216975 7 5 cbr 1000 ------- 0 1.0 5.0 22 23
r 1.21808 1 2 cbr 1000 ------- 0 1.0 5.0 26 27
+ 1.21808 2 3 cbr 1000 ------- 0 1.0 5.0 26 27
- 1.21808 2 3 cbr 1000 ------- 0 1.0 5.0 26 27
r 1.22016 2 3 cbr 1000 ------- 0 1.0 5.0 25 26
h 1.22016 3 7 cbr 1000 ------- 0 1.0 5.0 25 26
+ 1.22216 3 7 cbr 1000 ------- 0 1.0 5.0 24 25
- 1.22216 3 7 cbr 1000 ------- 0 1.0 5.0 24 25
+ 1.224 1 2 cbr 1000 ------- 0 1.0 5.0 28 29
- 1.224 1 2 cbr 1000 ------- 0 1.0 5.0 28 29
r 1.224975 7 5 cbr 1000 ------- 0 1.0 5.0 23 24
r 1.22608 1 2 cbr 1000 ------- 0 1.0 5.0 27 28
+ 1.22608 2 3 cbr 1000 ------- 0 1.0 5.0 27 28
- 1.22608 2 3 cbr 1000 ------- 0 1.0 5.0 27 28
r 1.22816 2 3 cbr 1000 ------- 0 1.0 5.0 26 27
h 1.22816 3 7 cbr 1000 ------- 0 1.0 5.0 26 27
+ 1.23016 3 7 cbr 1000 ------- 0 1.0 5.0 25 26
- 1.23016 3 7 cbr 1000 ------- 0 1.0 5.0 25 26
+ 1.232 1 2 cbr 1000 ------- 0 1.0 5.0 29 30
- 1.232 1 2 cbr 1000 ------- 0 1.0 5.0 29 30
r 1.232975 7 5 cbr 1000 ------- 0 1.0 5.0 24 25
r 1.23408 1 2 cbr 1000 ------- 0 1.0 5.0 28 29
+ 1.23408 2 3 cbr 1000 ------- 0 1.0 5.0 28 29
- 1.23408 2 3 cbr 1000 ------- 0 1.0 5.0 28 29
r 1.23616 2 3 cbr 1000 ------- 0 1.0 5.0 27 28
h 1.23616 3 7 cbr 1000 ------- 0 1.0 5.0 27 28
+ 1.23816 3 7 cbr 1000 ------- 0 1.0 5.0 26 27
- 1.23816 3 7 cbr 1000 ------- 0 1.0 5.0 26 27
+ 1.24 1 2 cbr 1000 ------- 0 1.0 5.0 30 31
- 1.24 1 2 cbr 1000 ------- 0 1.0 5.0 30 31
r 1.240975 7 5 cbr 1000 ------- 0 1.0 5.0 25 26
r 1.24208 1 2 cbr 1000 ------- 0 1.0 5.0 29 30
+ 1.24208 2 3 cbr 1000 ------- 0 1.0 5.0 29 30
- 1.24208 2 3 cbr 1000 ------- 0 1.0 5.0 29 30
r 1.24416 2 3 cbr 1000 ------- 0 1.0 5.0 28 29
h 1.24416 3 7 cbr 1000 ------- 0 1.0 5.0 28 29
+ 1.24616 3 7 cbr 1000 ------- 0 1.0 5.0 27 28
- 1.24616 3 7 cbr 1000 ------- 0 1.0 5.0 27 28
+ 1.248 1 2 cbr 1000 ------- 0 1.0 5.0 31 32
- 1.248 1 2 cbr 1000 ------- 0 1.0 5.0 31 32
r 1.248975 7 5 cbr 1000 ------- 0 1.0 5.0 26 27
r 1.25008 1 2 cbr 1000 ------- 0 1.0 5.0 30 31
+ 1.25008 2 3 cbr 1000 ------- 0 1.0 5.0 30 31
- 1.25008 2 3 cbr 1000 ------- 0 1.0 5.0 30 31
r 1.25216 2 3 cbr 1000 ------- 0 1.0 5.0 29 30
h 1.25216 3 7 cbr 1000 ------- 0 1.0 5.0 29 30
+ 1.25416 3 7 cbr 1000 ------- 0 1.0 5.0 28 29
- 1.25416 3 7 cbr 1000 ------- 0 1.0 5.0 28 29
+ 1.256 1 2 cbr 1000 ------- 0 1.0 5.0 32 33
- 1.256 1 2 cbr 1000 ------- 0 1.0 5.0 32 33
r 1.256975 7 5 cbr 1000 ------- 0 1.0 5.0 27 28
r 1.25808 1 2 cbr 1000 ------- 0 1.0 5.0 31 32
+ 1.25808 2 3 cbr 1000 ------- 0 1.0 5.0 31 32
- 1.25808 2 3 cbr 1000 ------- 0 1.0 5.0 31 32
r 1.26016 2 3 cbr 1000 ------- 0 1.0 5.0 30 31
h 1.26016 3 7 cbr 1000 ------- 0 1.0 5.0 30 31
+ 1.26216 3 7 cbr 1000 ------- 0 1.0 5.0 29 30
- 1.26216 3 7 cbr 1000 ------- 0 1.0 5.0 29 30
+ 1.264 1 2 cbr 1000 ------- 0 1.0 5.0 33 34
- 1.264 1 2 cbr 1000 ------- 0 1.0 5.0 33 34
r 1.264975 7 5 cbr 1000 ------- 0 1.0 5.0 28 29
r 1.26608 1 2 cbr 1000 ------- 0 1.0 5.0 32 33
+ 1.26608 2 3 cbr 1000 ------- 0 1.0 5.0 32 33
- 1.26608 2 3 cbr 1000 ------- 0 1.0 5.0 32 33
r 1.26816 2 3 cbr 1000 ------- 0 1.0 5.0 31 32
h 1.26816 3 7 cbr 1000 ------- 0 1.0 5.0 31 32
+ 1.27016 3 7 cbr 1000 ------- 0 1.0 5.0 30 31
- 1.27016 3 7 cbr 1000 ------- 0 1.0 5.0 30 31
+ 1.272 1 2 cbr 1000 ------- 0 1.0 5.0 34 35
- 1.272 1 2 cbr 1000 ------- 0 1.0 5.0 34 35
r 1.272975 7 5 cbr 1000 ------- 0 1.0 5.0 29 30
r 1.27408 1 2 cbr 1000 ------- 0 1.0 5.0 33 34
+ 1.27408 2 3 cbr 1000 ------- 0 1.0 5.0 33 34
- 1.27408 2 3 cbr 1000 ------- 0 1.0 5.0 33 34
r 1.27616 2 3 cbr 1000 ------- 0 1.0 5.0 32 33
h 1.27616 3 7 cbr 1000 ------- 0 1.0 5.0 32 33
+ 1.27816 3 7 cbr 1000 ------- 0 1.0 5.0 31 32
- 1.27816 3 7 cbr 1000 ------- 0 1.0 5.0 31 32
+ 1.28 1 2 cbr 1000 ------- 0 1.0 5.0 35 36
- 1.28 1 2 cbr 1000 ------- 0 1.0 5.0 35 36
r 1.280975 7 5 cbr 1000 ------- 0 1.0 5.0 30 31
r 1.28208 1 2 cbr 1000 ------- 0 1.0 5.0 34 35
+ 1.28208 2 3 cbr 1000 ------- 0 1.0 5.0 34 35
- 1.28208 2 3 cbr 1000 ------- 0 1.0 5.0 34 35
r 1.28416 2 3 cbr 1000 ------- 0 1.0 5.0 33 34
h 1.28416 3 7 cbr 1000 ------- 0 1.0 5.0 33 34
+ 1.28616 3 7 cbr 1000 ------- 0 1.0 5.0 32 33
- 1.28616 3 7 cbr 1000 ------- 0 1.0 5.0 32 33
+ 1.288 1 2 cbr 1000 ------- 0 1.0 5.0 36 37
- 1.288 1 2 cbr 1000 ------- 0 1.0 5.0 36 37
r 1.288975 7 5 cbr 1000 ------- 0 1.0 5.0 31 32
r 1.29008 1 2 cbr 1000 ------- 0 1.0 5.0 35 36
+ 1.29008 2 3 cbr 1000 ------- 0 1.0 5.0 35 36
- 1.29008 2 3 cbr 1000 ------- 0 1.0 5.0 35 36
r 1.29216 2 3 cbr 1000 ------- 0 1.0 5.0 34 35
h 1.29216 3 7 cbr 1000 ------- 0 1.0 5.0 34 35
+ 1.29416 3 7 cbr 1000 ------- 0 1.0 5.0 33 34
- 1.29416 3 7 cbr 1000 ------- 0 1.0 5.0 33 34
+ 1.296 1 2 cbr 1000 ------- 0 1.0 5.0 37 38
- 1.296 1 2 cbr 1000 ------- 0 1.0 5.0 37 38
r 1.296975 7 5 cbr 1000 ------- 0 1.0 5.0 32 33
r 1.29808 1 2 cbr 1000 ------- 0 1.0 5.0 36 37
+ 1.29808 2 3 cbr 1000 ------- 0 1.0 5.0 36 37
- 1.29808 2 3 cbr 1000 ------- 0 1.0 5.0 36 37
r 1.30016 2 3 cbr 1000 ------- 0 1.0 5.0 35 36
h 1.30016 3 7 cbr 1000 ------- 0 1.0 5.0 35 36
+ 1.30216 3 7 cbr 1000 ------- 0 1.0 5.0 34 35
- 1.30216 3 7 cbr 1000 ------- 0 1.0 5.0 34 35
+ 1.304 1 2 cbr 1000 ------- 0 1.0 5.0 38 39
- 1.304 1 2 cbr 1000 ------- 0 1.0 5.0 38 39
r 1.304975 7 5 cbr 1000 ------- 0 1.0 5.0 33 34
r 1.30608 1 2 cbr 1000 ------- 0 1.0 5.0 37 38
+ 1.30608 2 3 cbr 1000 ------- 0 1.0 5.0 37 38
- 1.30608 2 3 cbr 1000 ------- 0 1.0 5.0 37 38
r 1.30816 2 3 cbr 1000 ------- 0 1.0 5.0 36 37
h 1.30816 3 7 cbr 1000 ------- 0 1.0 5.0 36 37
+ 1.31016 3 7 cbr 1000 ------- 0 1.0 5.0 35 36
- 1.31016 3 7 cbr 1000 ------- 0 1.0 5.0 35 36
+ 1.312 1 2 cbr 1000 ------- 0 1.0 5.0 39 40
- 1.312 1 2 cbr 1000 ------- 0 1.0 5.0 39 40
r 1.312975 7 5 cbr 1000 ------- 0 1.0 5.0 34 35
r 1.31408 1 2 cbr 1000 ------- 0 1.0 5.0 38 39
+ 1.31408 2 3 cbr 1000 ------- 0 1.0 5.0 38 39
- 1.31408 2 3 cbr 1000 ------- 0 1.0 5.0 38 39
r 1.31616 2 3 cbr 1000 ------- 0 1.0 5.0 37 38
h 1.31616 3 7 cbr 1000 ------- 0 1.0 5.0 37 38
+ 1.31816 3 7 cbr 1000 ------- 0 1.0 5.0 36 37
- 1.31816 3 7 cbr 1000 ------- 0 1.0 5.0 36 37
+ 1.32 1 2 cbr 1000 ------- 0 1.0 5.0 40 41
- 1.32 1 2 cbr 1000 ------- 0 1.0 5.0 40 41
r 1.320975 7 5 cbr 1000 ------- 0 1.0 5.0 35 36
r 1.32208 1 2 cbr 1000 ------- 0 1.0 5.0 39 40
+ 1.32208 2 3 cbr 1000 ------- 0 1.0 5.0 39 40
- 1.32208 2 3 cbr 1000 ------- 0 1.0 5.0 39 40
r 1.32416 2 3 cbr 1000 ------- 0 1.0 5.0 38 39
h 1.32416 3 7 cbr 1000 ------- 0 1.0 5.0 38 39
+ 1.32616 3 7 cbr 1000 ------- 0 1.0 5.0 37 38
- 1.32616 3 7 cbr 1000 ------- 0 1.0 5.0 37 38
+ 1.328 1 2 cbr 1000 ------- 0 1.0 5.0 41 42
- 1.328 1 2 cbr 1000 ------- 0 1.0 5.0 41 42
r 1.328975 7 5 cbr 1000 ------- 0 1.0 5.0 36 37
r 1.33008 1 2 cbr 1000 ------- 0 1.0 5.0 40 41
+ 1.33008 2 3 cbr 1000 ------- 0 1.0 5.0 40 41
- 1.33008 2 3 cbr 1000 ------- 0 1.0 5.0 40 41
r 1.33216 2 3 cbr 1000 ------- 0 1.0 5.0 39 40
h 1.33216 3 7 cbr 1000 ------- 0 1.0 5.0 39 40
+ 1.33416 3 7 cbr 1000 ------- 0 1.0 5.0 38 39
- 1.33416 3 7 cbr 1000 ------- 0 1.0 5.0 38 39
+ 1.336 1 2 cbr 1000 ------- 0 1.0 5.0 42 43
- 1.336 1 2 cbr 1000 ------- 0 1.0 5.0 42 43
r 1.336975 7 5 cbr 1000 ------- 0 1.0 5.0 37 38
r 1.33808 1 2 cbr 1000 ------- 0 1.0 5.0 41 42
+ 1.33808 2 3 cbr 1000 ------- 0 1.0 5.0 41 42
- 1.33808 2 3 cbr 1000 ------- 0 1.0 5.0 41 42
r 1.34016 2 3 cbr 1000 ------- 0 1.0 5.0 40 41
h 1.34016 3 7 cbr 1000 ------- 0 1.0 5.0 40 41
+ 1.34216 3 7 cbr 1000 ------- 0 1.0 5.0 39 40
- 1.34216 3 7 cbr 1000 ------- 0 1.0 5.0 39 40
+ 1.344 1 2 cbr 1000 ------- 0 1.0 5.0 43 44
- 1.344 1 2 cbr 1000 ------- 0 1.0 5.0 43 44
r 1.344975 7 5 cbr 1000 ------- 0 1.0 5.0 38 39
r 1.34608 1 2 cbr 1000 ------- 0 1.0 5.0 42 43
+ 1.34608 2 3 cbr 1000 ------- 0 1.0 5.0 42 43
- 1.34608 2 3 cbr 1000 ------- 0 1.0 5.0 42 43
r 1.34816 2 3 cbr 1000 ------- 0 1.0 5.0 41 42
h 1.34816 3 7 cbr 1000 ------- 0 1.0 5.0 41 42
+ 1.35016 3 7 cbr 1000 ------- 0 1.0 5.0 40 41
- 1.35016 3 7 cbr 1000 ------- 0 1.0 5.0 40 41
+ 1.352 1 2 cbr 1000 ------- 0 1.0 5.0 44 45
- 1.352 1 2 cbr 1000 ------- 0 1.0 5.0 44 45
r 1.352975 7 5 cbr 1000 ------- 0 1.0 5.0 39 40
r 1.35408 1 2 cbr 1000 ------- 0 1.0 5.0 43 44
+ 1.35408 2 3 cbr 1000 ------- 0 1.0 5.0 43 44
- 1.35408 2 3 cbr 1000 ------- 0 1.0 5.0 43 44
r 1.35616 2 3 cbr 1000 ------- 0 1.0 5.0 42 43
h 1.35616 3 7 cbr 1000 ------- 0 1.0 5.0 42 43
+ 1.35816 3 7 cbr 1000 ------- 0 1.0 5.0 41 42
- 1.35816 3 7 cbr 1000 ------- 0 1.0 5.0 41 42
+ 1.36 1 2 cbr 1000 ------- 0 1.0 5.0 45 46
- 1.36 1 2 cbr 1000 ------- 0 1.0 5.0 45 46
r 1.360975 7 5 cbr 1000 ------- 0 1.0 5.0 40 41
r 1.36208 1 2 cbr 1000 ------- 0 1.0 5.0 44 45
+ 1.36208 2 3 cbr 1000 ------- 0 1.0 5.0 44 45
- 1.36208 2 3 cbr 1000 ------- 0 1.0 5.0 44 45
r 1.36416 2 3 cbr 1000 ------- 0 1.0 5.0 43 44
h 1.36416 3 7 cbr 1000 ------- 0 1.0 5.0 43 44
+ 1.36616 3 7 cbr 1000 ------- 0 1.0 5.0 42 43
- 1.36616 3 7 cbr 1000 ------- 0 1.0 5.0 42 43
+ 1.368 1 2 cbr 1000 ------- 0 1.0 5.0 46 47
- 1.368 1 2 cbr 1000 ------- 0 1.0 5.0 46 47
r 1.368975 7 5 cbr 1000 ------- 0 1.0 5.0 41 42
r 1.37008 1 2 cbr 1000 ------- 0 1.0 5.0 45 46
+ 1.37008 2 3 cbr 1000 ------- 0 1.0 5.0 45 46
- 1.37008 2 3 cbr 1000 ------- 0 1.0 5.0 45 46
r 1.37216 2 3 cbr 1000 ------- 0 1.0 5.0 44 45
h 1.37216 3 7 cbr 1000 ------- 0 1.0 5.0 44 45
+ 1.37416 3 7 cbr 1000 ------- 0 1.0 5.0 43 44
- 1.37416 3 7 cbr 1000 ------- 0 1.0 5.0 43 44
+ 1.376 1 2 cbr 1000 ------- 0 1.0 5.0 47 48
- 1.376 1 2 cbr 1000 ------- 0 1.0 5.0 47 48
r 1.376975 7 5 cbr 1000 ------- 0 1.0 5.0 42 43
r 1.37808 1 2 cbr 1000 ------- 0 1.0 5.0 46 47
+ 1.37808 2 3 cbr 1000 ------- 0 1.0 5.0 46 47
- 1.37808 2 3 cbr 1000 ------- 0 1.0 5.0 46 47
r 1.38016 2 3 cbr 1000 ------- 0 1.0 5.0 45 46
h 1.38016 3 7 cbr 1000 ------- 0 1.0 5.0 45 46
+ 1.38216 3 7 cbr 1000 ------- 0 1.0 5.0 44 45
- 1.38216 3 7 cbr 1000 ------- 0 1.0 5.0 44 45
+ 1.384 1 2 cbr 1000 ------- 0 1.0 5.0 48 49
- 1.384 1 2 cbr 1000 ------- 0 1.0 5.0 48 49
r 1.384975 7 5 cbr 1000 ------- 0 1.0 5.0 43 44
r 1.38608 1 2 cbr 1000 ------- 0 1.0 5.0 47 48
+ 1.38608 2 3 cbr 1000 ------- 0 1.0 5.0 47 48
- 1.38608 2 3 cbr 1000 ------- 0 1.0 5.0 47 48
r 1.38816 2 3 cbr 1000 ------- 0 1.0 5.0 46 47
h 1.38816 3 7 cbr 1000 ------- 0 1.0 5.0 46 47
+ 1.39016 3 7 cbr 1000 ------- 0 1.0 5.0 45 46
- 1.39016 3 7 cbr 1000 ------- 0 1.0 5.0 45 46
+ 1.392 1 2 cbr 1000 ------- 0 1.0 5.0 49 50
- 1.392 1 2 cbr 1000 ------- 0 1.0 5.0 49 50
r 1.392975 7 5 cbr 1000 ------- 0 1.0 5.0 44 45
r 1.39408 1 2 cbr 1000 ------- 0 1.0 5.0 48 49
+ 1.39408 2 3 cbr 1000 ------- 0 1.0 5.0 48 49
- 1.39408 2 3 cbr 1000 ------- 0 1.0 5.0 48 49
r 1.39616 2 3 cbr 1000 ------- 0 1.0 5.0 47 48
h 1.39616 3 7 cbr 1000 ------- 0 1.0 5.0 47 48
+ 1.39816 3 7 cbr 1000 ------- 0 1.0 5.0 46 47
- 1.39816 3 7 cbr 1000 ------- 0 1.0 5.0 46 47
+ 1.4 1 2 cbr 1000 ------- 0 1.0 5.0 50 51
- 1.4 1 2 cbr 1000 ------- 0 1.0 5.0 50 51
r 1.400975 7 5 cbr 1000 ------- 0 1.0 5.0 45 46
r 1.40208 1 2 cbr 1000 ------- 0 1.0 5.0 49 50
+ 1.40208 2 3 cbr 1000 ------- 0 1.0 5.0 49 50
- 1.40208 2 3 cbr 1000 ------- 0 1.0 5.0 49 50
r 1.40416 2 3 cbr 1000 ------- 0 1.0 5.0 48 49
h 1.40416 3 7 cbr 1000 ------- 0 1.0 5.0 48 49
+ 1.40616 3 7 cbr 1000 ------- 0 1.0 5.0 47 48
- 1.40616 3 7 cbr 1000 ------- 0 1.0 5.0 47 48
+ 1.408 1 2 cbr 1000 ------- 0 1.0 5.0 51 52
- 1.408 1 2 cbr 1000 ------- 0 1.0 5.0 51 52
r 1.408975 7 5 cbr 1000 ------- 0 1.0 5.0 46 47
r 1.41008 1 2 cbr 1000 ------- 0 1.0 5.0 50 51
+ 1.41008 2 3 cbr 1000 ------- 0 1.0 5.0 50 51
- 1.41008 2 3 cbr 1000 ------- 0 1.0 5.0 50 51
r 1.41216 2 3 cbr 1000 ------- 0 1.0 5.0 49 50
h 1.41216 3 7 cbr 1000 ------- 0 1.0 5.0 49 50
+ 1.41416 3 7 cbr 1000 ------- 0 1.0 5.0 48 49
- 1.41416 3 7 cbr 1000 ------- 0 1.0 5.0 48 49
+ 1.416 1 2 cbr 1000 ------- 0 1.0 5.0 52 53
- 1.416 1 2 cbr 1000 ------- 0 1.0 5.0 52 53
r 1.416975 7 5 cbr 1000 ------- 0 1.0 5.0 47 48
r 1.41808 1 2 cbr 1000 ------- 0 1.0 5.0 51 52
+ 1.41808 2 3 cbr 1000 ------- 0 1.0 5.0 51 52
- 1.41808 2 3 cbr 1000 ------- 0 1.0 5.0 51 52
r 1.42016 2 3 cbr 1000 ------- 0 1.0 5.0 50 51
h 1.42016 3 7 cbr 1000 ------- 0 1.0 5.0 50 51
+ 1.42216 3 7 cbr 1000 ------- 0 1.0 5.0 49 50
- 1.42216 3 7 cbr 1000 ------- 0 1.0 5.0 49 50
+ 1.424 1 2 cbr 1000 ------- 0 1.0 5.0 53 54
- 1.424 1 2 cbr 1000 ------- 0 1.0 5.0 53 54
r 1.424975 7 5 cbr 1000 ------- 0 1.0 5.0 48 49
r 1.42608 1 2 cbr 1000 ------- 0 1.0 5.0 52 53
+ 1.42608 2 3 cbr 1000 ------- 0 1.0 5.0 52 53
- 1.42608 2 3 cbr 1000 ------- 0 1.0 5.0 52 53
r 1.42816 2 3 cbr 1000 ------- 0 1.0 5.0 51 52
h 1.42816 3 7 cbr 1000 ------- 0 1.0 5.0 51 52
+ 1.43016 3 7 cbr 1000 ------- 0 1.0 5.0 50 51
- 1.43016 3 7 cbr 1000 ------- 0 1.0 5.0 50 51
+ 1.432 1 2 cbr 1000 ------- 0 1.0 5.0 54 55
- 1.432 1 2 cbr 1000 ------- 0 1.0 5.0 54 55
r 1.432975 7 5 cbr 1000 ------- 0 1.0 5.0 49 50
r 1.43408 1 2 cbr 1000 ------- 0 1.0 5.0 53 54
+ 1.43408 2 3 cbr 1000 ------- 0 1.0 5.0 53 54
- 1.43408 2 3 cbr 1000 ------- 0 1.0 5.0 53 54
r 1.43616 2 3 cbr 1000 ------- 0 1.0 5.0 52 53
h 1.43616 3 7 cbr 1000 ------- 0 1.0 5.0 52 53
+ 1.43816 3 7 cbr 1000 ------- 0 1.0 5.0 51 52
- 1.43816 3 7 cbr 1000 ------- 0 1.0 5.0 51 52
+ 1.44 1 2 cbr 1000 ------- 0 1.0 5.0 55 56
- 1.44 1 2 cbr 1000 ------- 0 1.0 5.0 55 56
r 1.440975 7 5 cbr 1000 ------- 0 1.0 5.0 50 51
r 1.44208 1 2 cbr 1000 ------- 0 1.0 5.0 54 55
+ 1.44208 2 3 cbr 1000 ------- 0 1.0 5.0 54 55
- 1.44208 2 3 cbr 1000 ------- 0 1.0 5.0 54 55
r 1.44416 2 3 cbr 1000 ------- 0 1.0 5.0 53 54
h 1.44416 3 7 cbr 1000 ------- 0 1.0 5.0 53 54
+ 1.44616 3 7 cbr 1000 ------- 0 1.0 5.0 52 53
- 1.44616 3 7 cbr 1000 ------- 0 1.0 5.0 52 53
+ 1.448 1 2 cbr 1000 ------- 0 1.0 5.0 56 57
- 1.448 1 2 cbr 1000 ------- 0 1.0 5.0 56 57
r 1.448975 7 5 cbr 1000 ------- 0 1.0 5.0 51 52
r 1.45008 1 2 cbr 1000 ------- 0 1.0 5.0 55 56
+ 1.45008 2 3 cbr 1000 ------- 0 1.0 5.0 55 56
- 1.45008 2 3 cbr 1000 ------- 0 1.0 5.0 55 56
r 1.45216 2 3 cbr 1000 ------- 0 1.0 5.0 54 55
h 1.45216 3 7 cbr 1000 ------- 0 1.0 5.0 54 55
+ 1.45416 3 7 cbr 1000 ------- 0 1.0 5.0 53 54
- 1.45416 3 7 cbr 1000 ------- 0 1.0 5.0 53 54
+ 1.456 1 2 cbr 1000 ------- 0 1.0 5.0 57 58
- 1.456 1 2 cbr 1000 ------- 0 1.0 5.0 57 58
r 1.456975 7 5 cbr 1000 ------- 0 1.0 5.0 52 53
r 1.45808 1 2 cbr 1000 ------- 0 1.0 5.0 56 57
+ 1.45808 2 3 cbr 1000 ------- 0 1.0 5.0 56 57
- 1.45808 2 3 cbr 1000 ------- 0 1.0 5.0 56 57
r 1.46016 2 3 cbr 1000 ------- 0 1.0 5.0 55 56
h 1.46016 3 7 cbr 1000 ------- 0 1.0 5.0 55 56
+ 1.46216 3 7 cbr 1000 ------- 0 1.0 5.0 54 55
- 1.46216 3 7 cbr 1000 ------- 0 1.0 5.0 54 55
+ 1.464 1 2 cbr 1000 ------- 0 1.0 5.0 58 59
- 1.464 1 2 cbr 1000 ------- 0 1.0 5.0 58 59
r 1.464975 7 5 cbr 1000 ------- 0 1.0 5.0 53 54
r 1.46608 1 2 cbr 1000 ------- 0 1.0 5.0 57 58
+ 1.46608 2 3 cbr 1000 ------- 0 1.0 5.0 57 58
- 1.46608 2 3 cbr 1000 ------- 0 1.0 5.0 57 58
r 1.46816 2 3 cbr 1000 ------- 0 1.0 5.0 56 57
h 1.46816 3 7 cbr 1000 ------- 0 1.0 5.0 56 57
+ 1.47016 3 7 cbr 1000 ------- 0 1.0 5.0 55 56
- 1.47016 3 7 cbr 1000 ------- 0 1.0 5.0 55 56
+ 1.472 1 2 cbr 1000 ------- 0 1.0 5.0 59 60
- 1.472 1 2 cbr 1000 ------- 0 1.0 5.0 59 60
r 1.472975 7 5 cbr 1000 ------- 0 1.0 5.0 54 55
r 1.47408 1 2 cbr 1000 ------- 0 1.0 5.0 58 59
+ 1.47408 2 3 cbr 1000 ------- 0 1.0 5.0 58 59
- 1.47408 2 3 cbr 1000 ------- 0 1.0 5.0 58 59
r 1.47616 2 3 cbr 1000 ------- 0 1.0 5.0 57 58
h 1.47616 3 7 cbr 1000 ------- 0 1.0 5.0 57 58
+ 1.47816 3 7 cbr 1000 ------- 0 1.0 5.0 56 57
- 1.47816 3 7 cbr 1000 ------- 0 1.0 5.0 56 57
+ 1.48 1 2 cbr 1000 ------- 0 1.0 5.0 60 61
- 1.48 1 2 cbr 1000 ------- 0 1.0 5.0 60 61
r 1.480975 7 5 cbr 1000 ------- 0 1.0 5.0 55 56
r 1.48208 1 2 cbr 1000 ------- 0 1.0 5.0 59 60
+ 1.48208 2 3 cbr 1000 ------- 0 1.0 5.0 59 60
- 1.48208 2 3 cbr 1000 ------- 0 1.0 5.0 59 60
r 1.48416 2 3 cbr 1000 ------- 0 1.0 5.0 58 59
h 1.48416 3 7 cbr 1000 ------- 0 1.0 5.0 58 59
+ 1.48616 3 7 cbr 1000 ------- 0 1.0 5.0 57 58
- 1.48616 3 7 cbr 1000 ------- 0 1.0 5.0 57 58
+ 1.488 1 2 cbr 1000 ------- 0 1.0 5.0 61 62
- 1.488 1 2 cbr 1000 ------- 0 1.0 5.0 61 62
r 1.488975 7 5 cbr 1000 ------- 0 1.0 5.0 56 57
r 1.49008 1 2 cbr 1000 ------- 0 1.0 5.0 60 61
+ 1.49008 2 3 cbr 1000 ------- 0 1.0 5.0 60 61
- 1.49008 2 3 cbr 1000 ------- 0 1.0 5.0 60 61
r 1.49216 2 3 cbr 1000 ------- 0 1.0 5.0 59 60
h 1.49216 3 7 cbr 1000 ------- 0 1.0 5.0 59 60
+ 1.49416 3 7 cbr 1000 ------- 0 1.0 5.0 58 59
- 1.49416 3 7 cbr 1000 ------- 0 1.0 5.0 58 59
+ 1.496 1 2 cbr 1000 ------- 0 1.0 5.0 62 63
- 1.496 1 2 cbr 1000 ------- 0 1.0 5.0 62 63
r 1.496975 7 5 cbr 1000 ------- 0 1.0 5.0 57 58
r 1.49808 1 2 cbr 1000 ------- 0 1.0 5.0 61 62
+ 1.49808 2 3 cbr 1000 ------- 0 1.0 5.0 61 62
- 1.49808 2 3 cbr 1000 ------- 0 1.0 5.0 61 62
r 1.50016 2 3 cbr 1000 ------- 0 1.0 5.0 60 61
h 1.50016 3 7 cbr 1000 ------- 0 1.0 5.0 60 61
+ 1.50216 3 7 cbr 1000 ------- 0 1.0 5.0 59 60
- 1.50216 3 7 cbr 1000 ------- 0 1.0 5.0 59 60
+ 1.504 1 2 cbr 1000 ------- 0 1.0 5.0 63 64
- 1.504 1 2 cbr 1000 ------- 0 1.0 5.0 63 64
r 1.504975 7 5 cbr 1000 ------- 0 1.0 5.0 58 59
r 1.50608 1 2 cbr 1000 ------- 0 1.0 5.0 62 63
+ 1.50608 2 3 cbr 1000 ------- 0 1.0 5.0 62 63
- 1.50608 2 3 cbr 1000 ------- 0 1.0 5.0 62 63
r 1.50816 2 3 cbr 1000 ------- 0 1.0 5.0 61 62
h 1.50816 3 7 cbr 1000 ------- 0 1.0 5.0 61 62
+ 1.51016 3 7 cbr 1000 ------- 0 1.0 5.0 60 61
- 1.51016 3 7 cbr 1000 ------- 0 1.0 5.0 60 61
+ 1.512 1 2 cbr 1000 ------- 0 1.0 5.0 64 65
- 1.512 1 2 cbr 1000 ------- 0 1.0 5.0 64 65
r 1.512975 7 5 cbr 1000 ------- 0 1.0 5.0 59 60
r 1.51408 1 2 cbr 1000 ------- 0 1.0 5.0 63 64
+ 1.51408 2 3 cbr 1000 ------- 0 1.0 5.0 63 64
- 1.51408 2 3 cbr 1000 ------- 0 1.0 5.0 63 64
r 1.51616 2 3 cbr 1000 ------- 0 1.0 5.0 62 63
h 1.51616 3 7 cbr 1000 ------- 0 1.0 5.0 62 63
+ 1.51816 3 7 cbr 1000 ------- 0 1.0 5.0 61 62
- 1.51816 3 7 cbr 1000 ------- 0 1.0 5.0 61 62
+ 1.52 1 2 cbr 1000 ------- 0 1.0 5.0 65 66
- 1.52 1 2 cbr 1000 ------- 0 1.0 5.0 65 66
r 1.520975 7 5 cbr 1000 ------- 0 1.0 5.0 60 61
r 1.52208 1 2 cbr 1000 ------- 0 1.0 5.0 64 65
+ 1.52208 2 3 cbr 1000 ------- 0 1.0 5.0 64 65
- 1.52208 2 3 cbr 1000 ------- 0 1.0 5.0 64 65
r 1.52416 2 3 cbr 1000 ------- 0 1.0 5.0 63 64
h 1.52416 3 7 cbr 1000 ------- 0 1.0 5.0 63 64
+ 1.52616 3 7 cbr 1000 ------- 0 1.0 5.0 62 63
- 1.52616 3 7 cbr 1000 ------- 0 1.0 5.0 62 63
+ 1.528 1 2 cbr 1000 ------- 0 1.0 5.0 66 67
- 1.528 1 2 cbr 1000 ------- 0 1.0 5.0 66 67
r 1.528975 7 5 cbr 1000 ------- 0 1.0 5.0 61 62
r 1.53008 1 2 cbr 1000 ------- 0 1.0 5.0 65 66