V -t * -v 1.0a5 -a 0
A -t * -n 1 -p 0 -o 0x7fffffff -c 30 -a 1
A -t * -h 1 -m 1073741823 -s 0
n -t * -a 4 -s 4 -S UP -v circle -c black -i black
n -t * -a 0 -s 0 -S UP -v circle -c black -i black
n -t * -a 5 -s 5 -S UP -v circle -c black -i black
n -t * -a 1 -s 1 -S UP -v circle -c black -i black
n -t * -a 6 -s 6 -S UP -v circle -c black -i black
n -t * -a 2 -s 2 -S UP -v circle -c black -i black
n -t * -a 7 -s 7 -S UP -v circle -c black -i black
n -t * -a 3 -s 3 -S UP -v circle -c black -i black
X -t * -n 8 -r 10Mb -D 10ms -o left
L -t * -s 8 -d 0 -o up
L -t * -s 8 -d 1 -o down
L -t * -s 8 -d 2 -o up
L -t * -s 8 -d 3 -o down
L -t * -s 8 -d 4 -o up
L -t * -s 8 -d 5 -o down
L -t * -s 8 -d 6 -o up
L -t * -s 8 -d 7 -o down
h -t 1 -s 1 -d 8 -p tcp -e 40 -c 0 -i 0 -a 0 -x {1.0 5.0 0 ------- null}
h -t 1 -s 7 -d 8 -p tcp -e 40 -c 0 -i 1 -a 0 -x {7.0 0.0 0 ------- null}
+ -t 1.01 -s 1 -d 8 -p tcp -e 40 -c 0 -i 0 -a 0 -x {1.0 5.0 0 ------- null}
- -t 1.01 -s 1 -d 8 -p tcp -e 40 -c 0 -i 0 -a 0 -x {1.0 5.0 0 ------- null}
h -t 1.01 -s 1 -d 8 -p tcp -e 40 -c 0 -i 0 -a 0 -x {1.0 5.0 -1 ------- null}
+ -t 1.01 -s 7 -d 8 -p tcp -e 40 -c 0 -i 1 -a 0 -x {7.0 0.0 0 ------- null}
- -t 1.01 -s 7 -d 8 -p tcp -e 40 -c 0 -i 1 -a 0 -x {7.0 0.0 0 ------- null}
h -t 1.01 -s 7 -d 8 -p tcp -e 40 -c 0 -i 1 -a 0 -x {7.0 0.0 -1 ------- null}
r -t 1.020072 -s 8 -d 5 -p tcp -e 40 -c 0 -i 0 -a 0 -x {1.0 5.0 0 ------- null}
h -t 1.020072 -s 5 -d 8 -p ack -e 40 -c 0 -i 2 -a 0 -x {5.0 1.0 0 ------- null}
r -t 1.0201368 -s 8 -d 0 -p tcp -e 40 -c 0 -i 1 -a 0 -x {7.0 0.0 0 ------- null}
h -t 1.0201368 -s 0 -d 8 -p ack -e 40 -c 0 -i 3 -a 0 -x {0.0 7.0 0 ------- null}
+ -t 1.030072 -s 5 -d 8 -p ack -e 40 -c 0 -i 2 -a 0 -x {5.0 1.0 0 ------- null}
- -t 1.030072 -s 5 -d 8 -p ack -e 40 -c 0 -i 2 -a 0 -x {5.0 1.0 0 ------- null}
h -t 1.030072 -s 5 -d 8 -p ack -e 40 -c 0 -i 2 -a 0 -x {5.0 1.0 -1 ------- null}
+ -t 1.0301368 -s 0 -d 8 -p ack -e 40 -c 0 -i 3 -a 0 -x {0.0 7.0 0 ------- null}
- -t 1.0301368 -s 0 -d 8 -p ack -e 40 -c 0 -i 3 -a 0 -x {0.0 7.0 0 ------- null}
h -t 1.0301368 -s 0 -d 8 -p ack -e 40 -c 0 -i 3 -a 0 -x {0.0 7.0 -1 ------- null}
r -t 1.0401272 -s 8 -d 1 -p ack -e 40 -c 0 -i 2 -a 0 -x {5.0 1.0 0 ------- null}
h -t 1.0401272 -s 1 -d 8 -p tcp -e 1540 -c 0 -i 4 -a 0 -x {1.0 5.0 1 ------- null}
h -t 1.0401272 -s 1 -d 8 -p tcp -e 1540 -c 0 -i 5 -a 0 -x {1.0 5.0 2 ------- null}
r -t 1.040192 -s 8 -d 7 -p ack -e 40 -c 0 -i 3 -a 0 -x {0.0 7.0 0 ------- null}
h -t 1.040192 -s 7 -d 8 -p tcp -e 1540 -c 0 -i 6 -a 0 -x {7.0 0.0 1 ------- null}
h -t 1.040192 -s 7 -d 8 -p tcp -e 1540 -c 0 -i 7 -a 0 -x {7.0 0.0 2 ------- null}
+ -t 1.0501272 -s 1 -d 8 -p tcp -e 1540 -c 0 -i 4 -a 0 -x {1.0 5.0 1 ------- null}
- -t 1.0501272 -s 1 -d 8 -p tcp -e 1540 -c 0 -i 4 -a 0 -x {1.0 5.0 1 ------- null}
h -t 1.0501272 -s 1 -d 8 -p tcp -e 1540 -c 0 -i 4 -a 0 -x {1.0 5.0 -1 ------- null}
+ -t 1.0501272 -s 1 -d 8 -p tcp -e 1540 -c 0 -i 5 -a 0 -x {1.0 5.0 2 ------- null}
+ -t 1.050192 -s 7 -d 8 -p tcp -e 1540 -c 0 -i 6 -a 0 -x {7.0 0.0 1 ------- null}
- -t 1.050192 -s 7 -d 8 -p tcp -e 1540 -c 0 -i 6 -a 0 -x {7.0 0.0 1 ------- null}
h -t 1.050192 -s 7 -d 8 -p tcp -e 1540 -c 0 -i 6 -a 0 -x {7.0 0.0 -1 ------- null}
+ -t 1.050192 -s 7 -d 8 -p tcp -e 1540 -c 0 -i 7 -a 0 -x {7.0 0.0 2 ------- null}
- -t 1.05138 -s 1 -d 8 -p tcp -e 1540 -c 0 -i 5 -a 0 -x {1.0 5.0 2 ------- null}
h -t 1.05138 -s 1 -d 8 -p tcp -e 1540 -c 0 -i 5 -a 0 -x {1.0 5.0 -1 ------- null}
- -t 1.0527216 -s 7 -d 8 -p tcp -e 1540 -c 0 -i 7 -a 0 -x {7.0 0.0 2 ------- null}
h -t 1.0527216 -s 7 -d 8 -p tcp -e 1540 -c 0 -i 7 -a 0 -x {7.0 0.0 -1 ------- null}
r -t 1.0613744 -s 8 -d 5 -p tcp -e 1540 -c 0 -i 4 -a 0 -x {1.0 5.0 1 ------- null}
h -t 1.0613744 -s 5 -d 8 -p ack -e 40 -c 0 -i 8 -a 0 -x {5.0 1.0 1 ------- null}
r -t 1.062716 -s 8 -d 0 -p tcp -e 1540 -c 0 -i 6 -a 0 -x {7.0 0.0 1 ------- null}
h -t 1.062716 -s 0 -d 8 -p ack -e 40 -c 0 -i 9 -a 0 -x {0.0 7.0 1 ------- null}
r -t 1.0640408 -s 8 -d 0 -p tcp -e 1540 -c 0 -i 7 -a 0 -x {7.0 0.0 2 ------- null}
h -t 1.0640408 -s 0 -d 8 -p ack -e 40 -c 0 -i 10 -a 0 -x {0.0 7.0 2 ------- null}
r -t 1.0652976 -s 8 -d 5 -p tcp -e 1540 -c 0 -i 5 -a 0 -x {1.0 5.0 2 ------- null}
h -t 1.0652976 -s 5 -d 8 -p ack -e 40 -c 0 -i 11 -a 0 -x {5.0 1.0 2 ------- null}
+ -t 1.0713744 -s 5 -d 8 -p ack -e 40 -c 0 -i 8 -a 0 -x {5.0 1.0 1 ------- null}
- -t 1.0713744 -s 5 -d 8 -p ack -e 40 -c 0 -i 8 -a 0 -x {5.0 1.0 1 ------- null}
h -t 1.0713744 -s 5 -d 8 -p ack -e 40 -c 0 -i 8 -a 0 -x {5.0 1.0 -1 ------- null}
+ -t 1.072716 -s 0 -d 8 -p ack -e 40 -c 0 -i 9 -a 0 -x {0.0 7.0 1 ------- null}
- -t 1.072716 -s 0 -d 8 -p ack -e 40 -c 0 -i 9 -a 0 -x {0.0 7.0 1 ------- null}
h -t 1.072716 -s 0 -d 8 -p ack -e 40 -c 0 -i 9 -a 0 -x {0.0 7.0 -1 ------- null}
+ -t 1.0740408 -s 0 -d 8 -p ack -e 40 -c 0 -i 10 -a 0 -x {0.0 7.0 2 ------- null}
- -t 1.0740408 -s 0 -d 8 -p ack -e 40 -c 0 -i 10 -a 0 -x {0.0 7.0 2 ------- null}
h -t 1.0740408 -s 0 -d 8 -p ack -e 40 -c 0 -i 10 -a 0 -x {0.0 7.0 -1 ------- null}
+ -t 1.0752976 -s 5 -d 8 -p ack -e 40 -c 0 -i 11 -a 0 -x {5.0 1.0 2 ------- null}
- -t 1.0752976 -s 5 -d 8 -p ack -e 40 -c 0 -i 11 -a 0 -x {5.0 1.0 2 ------- null}
h -t 1.0752976 -s 5 -d 8 -p ack -e 40 -c 0 -i 11 -a 0 -x {5.0 1.0 -1 ------- null}
r -t 1.0814296 -s 8 -d 1 -p ack -e 40 -c 0 -i 8 -a 0 -x {5.0 1.0 1 ------- null}
h -t 1.0814296 -s 1 -d 8 -p tcp -e 1540 -c 0 -i 12 -a 0 -x {1.0 5.0 3 ------- null}
h -t 1.0814296 -s 1 -d 8 -p tcp -e 1540 -c 0 -i 13 -a 0 -x {1.0 5.0 4 ------- null}
r -t 1.0827712 -s 8 -d 7 -p ack -e 40 -c 0 -i 9 -a 0 -x {0.0 7.0 1 ------- null}
h -t 1.0827712 -s 7 -d 8 -p tcp -e 1540 -c 0 -i 14 -a 0 -x {7.0 0.0 3 ------- null}
h -t 1.0827712 -s 7 -d 8 -p tcp -e 1540 -c 0 -i 15 -a 0 -x {7.0 0.0 4 ------- null}
r -t 1.084096 -s 8 -d 7 -p ack -e 40 -c 0 -i 10 -a 0 -x {0.0 7.0 2 ------- null}
h -t 1.084096 -s 7 -d 8 -p tcp -e 1540 -c 0 -i 16 -a 0 -x {7.0 0.0 5 ------- null}
h -t 1.084096 -s 7 -d 8 -p tcp -e 1540 -c 0 -i 17 -a 0 -x {7.0 0.0 6 ------- null}
r -t 1.0853528 -s 8 -d 1 -p ack -e 40 -c 0 -i 11 -a 0 -x {5.0 1.0 2 ------- null}
h -t 1.0853528 -s 1 -d 8 -p tcp -e 1540 -c 0 -i 18 -a 0 -x {1.0 5.0 5 ------- null}
h -t 1.0853528 -s 1 -d 8 -p tcp -e 1540 -c 0 -i 19 -a 0 -x {1.0 5.0 6 ------- null}
+ -t 1.0914296 -s 1 -d 8 -p tcp -e 1540 -c 0 -i 12 -a 0 -x {1.0 5.0 3 ------- null}
- -t 1.0914296 -s 1 -d 8 -p tcp -e 1540 -c 0 -i 12 -a 0 -x {1.0 5.0 3 ------- null}
h -t 1.0914296 -s 1 -d 8 -p tcp -e 1540 -c 0 -i 12 -a 0 -x {1.0 5.0 -1 ------- null}
+ -t 1.0914296 -s 1 -d 8 -p tcp -e 1540 -c 0 -i 13 -a 0 -x {1.0 5.0 4 ------- null}
- -t 1.0926824 -s 1 -d 8 -p tcp -e 1540 -c 0 -i 13 -a 0 -x {1.0 5.0 4 ------- null}
h -t 1.0926824 -s 1 -d 8 -p tcp -e 1540 -c 0 -i 13 -a 0 -x {1.0 5.0 -1 ------- null}
+ -t 1.0927712 -s 7 -d 8 -p tcp -e 1540 -c 0 -i 14 -a 0 -x {7.0 0.0 3 ------- null}
- -t 1.0927712 -s 7 -d 8 -p tcp -e 1540 -c 0 -i 14 -a 0 -x {7.0 0.0 3 ------- null}
h -t 1.0927712 -s 7 -d 8 -p tcp -e 1540 -c 0 -i 14 -a 0 -x {7.0 0.0 -1 ------- null}
+ -t 1.0927712 -s 7 -d 8 -p tcp -e 1540 -c 0 -i 15 -a 0 -x {7.0 0.0 4 ------- null}
+ -t 1.094096 -s 7 -d 8 -p tcp -e 1540 -c 0 -i 16 -a 0 -x {7.0 0.0 5 ------- null}
+ -t 1.094096 -s 7 -d 8 -p tcp -e 1540 -c 0 -i 17 -a 0 -x {7.0 0.0 6 ------- null}
- -t 1.095192 -s 7 -d 8 -p tcp -e 1540 -c 0 -i 15 -a 0 -x {7.0 0.0 4 ------- null}
h -t 1.095192 -s 7 -d 8 -p tcp -e 1540 -c 0 -i 15 -a 0 -x {7.0 0.0 -1 ------- null}
+ -t 1.0953528 -s 1 -d 8 -p tcp -e 1540 -c 0 -i 18 -a 0 -x {1.0 5.0 5 ------- null}
- -t 1.0953528 -s 1 -d 8 -p tcp -e 1540 -c 0 -i 18 -a 0 -x {1.0 5.0 5 ------- null}
h -t 1.0953528 -s 1 -d 8 -p tcp -e 1540 -c 0 -i 18 -a 0 -x {1.0 5.0 -1 ------- null}
+ -t 1.0953528 -s 1 -d 8 -p tcp -e 1540 -c 0 -i 19 -a 0 -x {1.0 5.0 6 ------- null}
- -t 1.0964448 -s 7 -d 8 -p tcp -e 1540 -c 0 -i 16 -a 0 -x {7.0 0.0 5 ------- null}
h -t 1.0964448 -s 7 -d 8 -p tcp -e 1540 -c 0 -i 16 -a 0 -x {7.0 0.0 -1 ------- null}
- -t 1.0977352 -s 1 -d 8 -p tcp -e 1540 -c 0 -i 19 -a 0 -x {1.0 5.0 6 ------- null}
h -t 1.0977352 -s 1 -d 8 -p tcp -e 1540 -c 0 -i 19 -a 0 -x {1.0 5.0 -1 ------- null}
- -t 1.1003168 -s 7 -d 8 -p tcp -e 1540 -c 0 -i 17 -a 0 -x {7.0 0.0 6 ------- null}
h -t 1.1003168 -s 7 -d 8 -p tcp -e 1540 -c 0 -i 17 -a 0 -x {7.0 0.0 -1 ------- null}
r -t 1.1026768 -s 8 -d 5 -p tcp -e 1540 -c 0 -i 12 -a 0 -x {1.0 5.0 3 ------- null}
h -t 1.1026768 -s 5 -d 8 -p ack -e 40 -c 0 -i 20 -a 0 -x {5.0 1.0 3 ------- null}
r -t 1.1039296 -s 8 -d 5 -p tcp -e 1540 -c 0 -i 13 -a 0 -x {1.0 5.0 4 ------- null}
h -t 1.1039296 -s 5 -d 8 -p ack -e 40 -c 0 -i 21 -a 0 -x {5.0 1.0 4 ------- null}
r -t 1.1051864 -s 8 -d 0 -p tcp -e 1540 -c 0 -i 14 -a 0 -x {7.0 0.0 3 ------- null}
h -t 1.1051864 -s 0 -d 8 -p ack -e 40 -c 0 -i 22 -a 0 -x {0.0 7.0 3 ------- null}
r -t 1.1064392 -s 8 -d 0 -p tcp -e 1540 -c 0 -i 15 -a 0 -x {7.0 0.0 4 ------- null}
h -t 1.1064392 -s 0 -d 8 -p ack -e 40 -c 0 -i 23 -a 0 -x {0.0 7.0 4 ------- null}
r -t 1.1077296 -s 8 -d 5 -p tcp -e 1540 -c 0 -i 18 -a 0 -x {1.0 5.0 5 ------- null}
h -t 1.1077296 -s 5 -d 8 -p ack -e 40 -c 0 -i 24 -a 0 -x {5.0 1.0 5 ------- null}
r -t 1.1090544 -s 8 -d 5 -p tcp -e 1540 -c 0 -i 19 -a 0 -x {1.0 5.0 6 ------- null}
h -t 1.1090544 -s 5 -d 8 -p ack -e 40 -c 0 -i 25 -a 0 -x {5.0 1.0 6 ------- null}
r -t 1.1103112 -s 8 -d 0 -p tcp -e 1540 -c 0 -i 16 -a 0 -x {7.0 0.0 5 ------- null}
h -t 1.1103112 -s 0 -d 8 -p ack -e 40 -c 0 -i 26 -a 0 -x {0.0 7.0 5 ------- null}
r -t 1.111564 -s 8 -d 0 -p tcp -e 1540 -c 0 -i 17 -a 0 -x {7.0 0.0 6 ------- null}
h -t 1.111564 -s 0 -d 8 -p ack -e 40 -c 0 -i 27 -a 0 -x {0.0 7.0 6 ------- null}
+ -t 1.1126768 -s 5 -d 8 -p ack -e 40 -c 0 -i 20 -a 0 -x {5.0 1.0 3 ------- null}
- -t 1.1126768 -s 5 -d 8 -p ack -e 40 -c 0 -i 20 -a 0 -x {5.0 1.0 3 ------- null}
h -t 1.1126768 -s 5 -d 8 -p ack -e 40 -c 0 -i 20 -a 0 -x {5.0 1.0 -1 ------- null}
+ -t 1.1139296 -s 5 -d 8 -p ack -e 40 -c 0 -i 21 -a 0 -x {5.0 1.0 4 ------- null}
- -t 1.1139296 -s 5 -d 8 -p ack -e 40 -c 0 -i 21 -a 0 -x {5.0 1.0 4 ------- null}
h -t 1.1139296 -s 5 -d 8 -p ack -e 40 -c 0 -i 21 -a 0 -x {5.0 1.0 -1 ------- null}
+ -t 1.1151864 -s 0 -d 8 -p ack -e 40 -c 0 -i 22 -a 0 -x {0.0 7.0 3 ------- null}
- -t 1.1151864 -s 0 -d 8 -p ack -e 40 -c 0 -i 22 -a 0 -x {0.0 7.0 3 ------- null}
h -t 1.1151864 -s 0 -d 8 -p ack -e 40 -c 0 -i 22 -a 0 -x {0.0 7.0 -1 ------- null}
+ -t 1.1164392 -s 0 -d 8 -p ack -e 40 -c 0 -i 23 -a 0 -x {0.0 7.0 4 ------- null}
- -t 1.1164392 -s 0 -d 8 -p ack -e 40 -c 0 -i 23 -a 0 -x {0.0 7.0 4 ------- null}
h -t 1.1164392 -s 0 -d 8 -p ack -e 40 -c 0 -i 23 -a 0 -x {0.0 7.0 -1 ------- null}
+ -t 1.1177296 -s 5 -d 8 -p ack -e 40 -c 0 -i 24 -a 0 -x {5.0 1.0 5 ------- null}
- -t 1.1177296 -s 5 -d 8 -p ack -e 40 -c 0 -i 24 -a 0 -x {5.0 1.0 5 ------- null}
h -t 1.1177296 -s 5 -d 8 -p ack -e 40 -c 0 -i 24 -a 0 -x {5.0 1.0 -1 ------- null}
+ -t 1.1190544 -s 5 -d 8 -p ack -e 40 -c 0 -i 25 -a 0 -x {5.0 1.0 6 ------- null}
- -t 1.1190544 -s 5 -d 8 -p ack -e 40 -c 0 -i 25 -a 0 -x {5.0 1.0 6 ------- null}
h -t 1.1190544 -s 5 -d 8 -p ack -e 40 -c 0 -i 25 -a 0 -x {5.0 1.0 -1 ------- null}
+ -t 1.1203112 -s 0 -d 8 -p ack -e 40 -c 0 -i 26 -a 0 -x {0.0 7.0 5 ------- null}
- -t 1.1203112 -s 0 -d 8 -p ack -e 40 -c 0 -i 26 -a 0 -x {0.0 7.0 5 ------- null}
h -t 1.1203112 -s 0 -d 8 -p ack -e 40 -c 0 -i 26 -a 0 -x {0.0 7.0 -1 ------- null}
+ -t 1.121564 -s 0 -d 8 -p ack -e 40 -c 0 -i 27 -a 0 -x {0.0 7.0 6 ------- null}
- -t 1.121564 -s 0 -d 8 -p ack -e 40 -c 0 -i 27 -a 0 -x {0.0 7.0 6 ------- null}
h -t 1.121564 -s 0 -d 8 -p ack -e 40 -c 0 -i 27 -a 0 -x {0.0 7.0 -1 ------- null}
r -t 1.122732 -s 8 -d 1 -p ack -e 40 -c 0 -i 20 -a 0 -x {5.0 1.0 3 ------- null}
h -t 1.122732 -s 1 -d 8 -p tcp -e 1540 -c 0 -i 28 -a 0 -x {1.0 5.0 7 ------- null}
h -t 1.122732 -s 1 -d 8 -p tcp -e 1540 -c 0 -i 29 -a 0 -x {1.0 5.0 8 ------- null}
r -t 1.1239848 -s 8 -d 1 -p ack -e 40 -c 0 -i 21 -a 0 -x {5.0 1.0 4 ------- null}
h -t 1.1239848 -s 1 -d 8 -p tcp -e 1540 -c 0 -i 30 -a 0 -x {1.0 5.0 9 ------- null}
h -t 1.1239848 -s 1 -d 8 -p tcp -e 1540 -c 0 -i 31 -a 0 -x {1.0 5.0 10 ------- null}
r -t 1.1252416 -s 8 -d 7 -p ack -e 40 -c 0 -i 22 -a 0 -x {0.0 7.0 3 ------- null}
h -t 1.1252416 -s 7 -d 8 -p tcp -e 1540 -c 0 -i 32 -a 0 -x {7.0 0.0 7 ------- null}
h -t 1.1252416 -s 7 -d 8 -p tcp -e 1540 -c 0 -i 33 -a 0 -x {7.0 0.0 8 ------- null}
r -t 1.1264944 -s 8 -d 7 -p ack -e 40 -c 0 -i 23 -a 0 -x {0.0 7.0 4 ------- null}
h -t 1.1264944 -s 7 -d 8 -p tcp -e 1540 -c 0 -i 34 -a 0 -x {7.0 0.0 9 ------- null}
h -t 1.1264944 -s 7 -d 8 -p tcp -e 1540 -c 0 -i 35 -a 0 -x {7.0 0.0 10 ------- null}
r -t 1.1277848 -s 8 -d 1 -p ack -e 40 -c 0 -i 24 -a 0 -x {5.0 1.0 5 ------- null}
h -t 1.1277848 -s 1 -d 8 -p tcp -e 1540 -c 0 -i 36 -a 0 -x {1.0 5.0 11 ------- null}
h -t 1.1277848 -s 1 -d 8 -p tcp -e 1540 -c 0 -i 37 -a 0 -x {1.0 5.0 12 ------- null}
r -t 1.1291096 -s 8 -d 1 -p ack -e 40 -c 0 -i 25 -a 0 -x {5.0 1.0 6 ------- null}
h -t 1.1291096 -s 1 -d 8 -p tcp -e 1540 -c 0 -i 38 -a 0 -x {1.0 5.0 13 ------- null}
h -t 1.1291096 -s 1 -d 8 -p tcp -e 1540 -c 0 -i 39 -a 0 -x {1.0 5.0 14 ------- null}
r -t 1.1303664 -s 8 -d 7 -p ack -e 40 -c 0 -i 26 -a 0 -x {0.0 7.0 5 ------- null}
h -t 1.1303664 -s 7 -d 8 -p tcp -e 1540 -c 0 -i 40 -a 0 -x {7.0 0.0 11 ------- null}
h -t 1.1303664 -s 7 -d 8 -p tcp -e 1540 -c 0 -i 41 -a 0 -x {7.0 0.0 12 ------- null}
r -t 1.1316192 -s 8 -d 7 -p ack -e 40 -c 0 -i 27 -a 0 -x {0.0 7.0 6 ------- null}
h -t 1.1316192 -s 7 -d 8 -p tcp -e 1540 -c 0 -i 42 -a 0 -x {7.0 0.0 13 ------- null}
h -t 1.1316192 -s 7 -d 8 -p tcp -e 1540 -c 0 -i 43 -a 0 -x {7.0 0.0 14 ------- null}
+ -t 1.132732 -s 1 -d 8 -p tcp -e 1540 -c 0 -i 28 -a 0 -x {1.0 5.0 7 ------- null}
- -t 1.132732 -s 1 -d 8 -p tcp -e 1540 -c 0 -i 28 -a 0 -x {1.0 5.0 7 ------- null}
h -t 1.132732 -s 1 -d 8 -p tcp -e 1540 -c 0 -i 28 -a 0 -x {1.0 5.0 -1 ------- null}
+ -t 1.132732 -s 1 -d 8 -p tcp -e 1540 -c 0 -i 29 -a 0 -x {1.0 5.0 8 ------- null}
+ -t 1.1339848 -s 1 -d 8 -p tcp -e 1540 -c 0 -i 30 -a 0 -x {1.0 5.0 9 ------- null}
+ -t 1.1339848 -s 1 -d 8 -p tcp -e 1540 -c 0 -i 31 -a 0 -x {1.0 5.0 10 ------- null}
- -t 1.1339848 -s 1 -d 8 -p tcp -e 1540 -c 0 -i 29 -a 0 -x {1.0 5.0 8 ------- null}
h -t 1.1339848 -s 1 -d 8 -p tcp -e 1540 -c 0 -i 29 -a 0 -x {1.0 5.0 -1 ------- null}
- -t 1.1352376 -s 1 -d 8 -p tcp -e 1540 -c 0 -i 30 -a 0 -x {1.0 5.0 9 ------- null}
h -t 1.1352376 -s 1 -d 8 -p tcp -e 1540 -c 0 -i 30 -a 0 -x {1.0 5.0 -1 ------- null}
+ -t 1.1352416 -s 7 -d 8 -p tcp -e 1540 -c 0 -i 32 -a 0 -x {7.0 0.0 7 ------- null}
- -t 1.1352416 -s 7 -d 8 -p tcp -e 1540 -c 0 -i 32 -a 0 -x {7.0 0.0 7 ------- null}
h -t 1.1352416 -s 7 -d 8 -p tcp -e 1540 -c 0 -i 32 -a 0 -x {7.0 0.0 -1 ------- null}
+ -t 1.1352416 -s 7 -d 8 -p tcp -e 1540 -c 0 -i 33 -a 0 -x {7.0 0.0 8 ------- null}
+ -t 1.1364944 -s 7 -d 8 -p tcp -e 1540 -c 0 -i 34 -a 0 -x {7.0 0.0 9 ------- null}
+ -t 1.1364944 -s 7 -d 8 -p tcp -e 1540 -c 0 -i 35 -a 0 -x {7.0 0.0 10 ------- null}
- -t 1.1365792 -s 7 -d 8 -p tcp -e 1540 -c 0 -i 33 -a 0 -x {7.0 0.0 8 ------- null}
h -t 1.1365792 -s 7 -d 8 -p tcp -e 1540 -c 0 -i 33 -a 0 -x {7.0 0.0 -1 ------- null}
+ -t 1.1377848 -s 1 -d 8 -p tcp -e 1540 -c 0 -i 36 -a 0 -x {1.0 5.0 11 ------- null}
+ -t 1.1377848 -s 1 -d 8 -p tcp -e 1540 -c 0 -i 37 -a 0 -x {1.0 5.0 12 ------- null}
- -t 1.1378528 -s 7 -d 8 -p tcp -e 1540 -c 0 -i 34 -a 0 -x {7.0 0.0 9 ------- null}
h -t 1.1378528 -s 7 -d 8 -p tcp -e 1540 -c 0 -i 34 -a 0 -x {7.0 0.0 -1 ------- null}
+ -t 1.1391096 -s 1 -d 8 -p tcp -e 1540 -c 0 -i 38 -a 0 -x {1.0 5.0 13 ------- null}
+ -t 1.1391096 -s 1 -d 8 -p tcp -e 1540 -c 0 -i 39 -a 0 -x {1.0 5.0 14 ------- null}
- -t 1.1391776 -s 7 -d 8 -p tcp -e 1540 -c 0 -i 35 -a 0 -x {7.0 0.0 10 ------- null}
h -t 1.1391776 -s 7 -d 8 -p tcp -e 1540 -c 0 -i 35 -a 0 -x {7.0 0.0 -1 ------- null}
+ -t 1.1403664 -s 7 -d 8 -p tcp -e 1540 -c 0 -i 40 -a 0 -x {7.0 0.0 11 ------- null}
+ -t 1.1403664 -s 7 -d 8 -p tcp -e 1540 -c 0 -i 41 -a 0 -x {7.0 0.0 12 ------- null}
- -t 1.1406176 -s 7 -d 8 -p tcp -e 1540 -c 0 -i 40 -a 0 -x {7.0 0.0 11 ------- null}
h -t 1.1406176 -s 7 -d 8 -p tcp -e 1540 -c 0 -i 40 -a 0 -x {7.0 0.0 -1 ------- null}
+ -t 1.1416192 -s 7 -d 8 -p tcp -e 1540 -c 0 -i 42 -a 0 -x {7.0 0.0 13 ------- null}
+ -t 1.1416192 -s 7 -d 8 -p tcp -e 1540 -c 0 -i 43 -a 0 -x {7.0 0.0 14 ------- null}
- -t 1.1419424 -s 7 -d 8 -p tcp -e 1540 -c 0 -i 41 -a 0 -x {7.0 0.0 12 ------- null}
h -t 1.1419424 -s 7 -d 8 -p tcp -e 1540 -c 0 -i 41 -a 0 -x {7.0 0.0 -1 ------- null}
- -t 1.1431952 -s 7 -d 8 -p tcp -e 1540 -c 0 -i 42 -a 0 -x {7.0 0.0 13 ------- null}
h -t 1.1431952 -s 7 -d 8 -p tcp -e 1540 -c 0 -i 42 -a 0 -x {7.0 0.0 -1 ------- null}
r -t 1.1439792 -s 8 -d 5 -p tcp -e 1540 -c 0 -i 28 -a 0 -x {1.0 5.0 7 ------- null}
h -t 1.1439792 -s 5 -d 8 -p ack -e 40 -c 0 -i 44 -a 0 -x {5.0 1.0 7 ------- null}
- -t 1.144448 -s 7 -d 8 -p tcp -e 1540 -c 0 -i 43 -a 0 -x {7.0 0.0 14 ------- null}
h -t 1.144448 -s 7 -d 8 -p tcp -e 1540 -c 0 -i 43 -a 0 -x {7.0 0.0 -1 ------- null}
r -t 1.145232 -s 8 -d 5 -p tcp -e 1540 -c 0 -i 29 -a 0 -x {1.0 5.0 8 ------- null}
h -t 1.145232 -s 5 -d 8 -p ack -e 40 -c 0 -i 45 -a 0 -x {5.0 1.0 8 ------- null}
r -t 1.1465736 -s 8 -d 0 -p tcp -e 1540 -c 0 -i 32 -a 0 -x {7.0 0.0 7 ------- null}
h -t 1.1465736 -s 0 -d 8 -p ack -e 40 -c 0 -i 46 -a 0 -x {0.0 7.0 7 ------- null}
r -t 1.1478472 -s 8 -d 0 -p tcp -e 1540 -c 0 -i 33 -a 0 -x {7.0 0.0 8 ------- null}
h -t 1.1478472 -s 0 -d 8 -p ack -e 40 -c 0 -i 47 -a 0 -x {0.0 7.0 8 ------- null}
r -t 1.149172 -s 8 -d 0 -p tcp -e 1540 -c 0 -i 34 -a 0 -x {7.0 0.0 9 ------- null}
h -t 1.149172 -s 0 -d 8 -p ack -e 40 -c 0 -i 48 -a 0 -x {0.0 7.0 9 ------- null}
r -t 1.150612 -s 8 -d 0 -p tcp -e 1540 -c 0 -i 35 -a 0 -x {7.0 0.0 10 ------- null}
h -t 1.150612 -s 0 -d 8 -p ack -e 40 -c 0 -i 49 -a 0 -x {0.0 7.0 10 ------- null}
r -t 1.1519368 -s 8 -d 0 -p tcp -e 1540 -c 0 -i 40 -a 0 -x {7.0 0.0 11 ------- null}
h -t 1.1519368 -s 0 -d 8 -p ack -e 40 -c 0 -i 50 -a 0 -x {0.0 7.0 11 ------- null}
r -t 1.1531896 -s 8 -d 0 -p tcp -e 1540 -c 0 -i 41 -a 0 -x {7.0 0.0 12 ------- null}
h -t 1.1531896 -s 0 -d 8 -p ack -e 40 -c 0 -i 51 -a 0 -x {0.0 7.0 12 ------- null}
+ -t 1.1539792 -s 5 -d 8 -p ack -e 40 -c 0 -i 44 -a 0 -x {5.0 1.0 7 ------- null}
- -t 1.1539792 -s 5 -d 8 -p ack -e 40 -c 0 -i 44 -a 0 -x {5.0 1.0 7 ------- null}
h -t 1.1539792 -s 5 -d 8 -p ack -e 40 -c 0 -i 44 -a 0 -x {5.0 1.0 -1 ------- null}
r -t 1.1544424 -s 8 -d 0 -p tcp -e 1540 -c 0 -i 42 -a 0 -x {7.0 0.0 13 ------- null}
h -t 1.1544424 -s 0 -d 8 -p ack -e 40 -c 0 -i 52 -a 0 -x {0.0 7.0 13 ------- null}
+ -t 1.155232 -s 5 -d 8 -p ack -e 40 -c 0 -i 45 -a 0 -x {5.0 1.0 8 ------- null}
- -t 1.155232 -s 5 -d 8 -p ack -e 40 -c 0 -i 45 -a 0 -x {5.0 1.0 8 ------- null}
h -t 1.155232 -s 5 -d 8 -p ack -e 40 -c 0 -i 45 -a 0 -x {5.0 1.0 -1 ------- null}
- -t 1.1557016 -s 1 -d 8 -p tcp -e 1540 -c 0 -i 31 -a 0 -x {1.0 5.0 10 ------- null}
h -t 1.1557016 -s 1 -d 8 -p tcp -e 1540 -c 0 -i 31 -a 0 -x {1.0 5.0 -1 ------- null}
r -t 1.1557672 -s 8 -d 0 -p tcp -e 1540 -c 0 -i 43 -a 0 -x {7.0 0.0 14 ------- null}
h -t 1.1557672 -s 0 -d 8 -p ack -e 40 -c 0 -i 53 -a 0 -x {0.0 7.0 14 ------- null}
+ -t 1.1565736 -s 0 -d 8 -p ack -e 40 -c 0 -i 46 -a 0 -x {0.0 7.0 7 ------- null}
- -t 1.1565736 -s 0 -d 8 -p ack -e 40 -c 0 -i 46 -a 0 -x {0.0 7.0 7 ------- null}
h -t 1.1565736 -s 0 -d 8 -p ack -e 40 -c 0 -i 46 -a 0 -x {0.0 7.0 -1 ------- null}
- -t 1.1570392 -s 1 -d 8 -p tcp -e 1540 -c 0 -i 36 -a 0 -x {1.0 5.0 11 ------- null}
h -t 1.1570392 -s 1 -d 8 -p tcp -e 1540 -c 0 -i 36 -a 0 -x {1.0 5.0 -1 ------- null}
+ -t 1.1578472 -s 0 -d 8 -p ack -e 40 -c 0 -i 47 -a 0 -x {0.0 7.0 8 ------- null}
- -t 1.1584928 -s 1 -d 8 -p tcp -e 1540 -c 0 -i 37 -a 0 -x {1.0 5.0 12 ------- null}
h -t 1.1584928 -s 1 -d 8 -p tcp -e 1540 -c 0 -i 37 -a 0 -x {1.0 5.0 -1 ------- null}
+ -t 1.159172 -s 0 -d 8 -p ack -e 40 -c 0 -i 48 -a 0 -x {0.0 7.0 9 ------- null}
- -t 1.1598176 -s 1 -d 8 -p tcp -e 1540 -c 0 -i 38 -a 0 -x {1.0 5.0 13 ------- null}
h -t 1.1598176 -s 1 -d 8 -p tcp -e 1540 -c 0 -i 38 -a 0 -x {1.0 5.0 -1 ------- null}
+ -t 1.160612 -s 0 -d 8 -p ack -e 40 -c 0 -i 49 -a 0 -x {0.0 7.0 10 ------- null}
- -t 1.1610912 -s 1 -d 8 -p tcp -e 1540 -c 0 -i 39 -a 0 -x {1.0 5.0 14 ------- null}
h -t 1.1610912 -s 1 -d 8 -p tcp -e 1540 -c 0 -i 39 -a 0 -x {1.0 5.0 -1 ------- null}
+ -t 1.1619368 -s 0 -d 8 -p ack -e 40 -c 0 -i 50 -a 0 -x {0.0 7.0 11 ------- null}
- -t 1.1624808 -s 0 -d 8 -p ack -e 40 -c 0 -i 47 -a 0 -x {0.0 7.0 8 ------- null}
h -t 1.1624808 -s 0 -d 8 -p ack -e 40 -c 0 -i 47 -a 0 -x {0.0 7.0 -1 ------- null}
- -t 1.1625416 -s 0 -d 8 -p ack -e 40 -c 0 -i 48 -a 0 -x {0.0 7.0 9 ------- null}
h -t 1.1625416 -s 0 -d 8 -p ack -e 40 -c 0 -i 48 -a 0 -x {0.0 7.0 -1 ------- null}
- -t 1.1626024 -s 0 -d 8 -p ack -e 40 -c 0 -i 49 -a 0 -x {0.0 7.0 10 ------- null}
h -t 1.1626024 -s 0 -d 8 -p ack -e 40 -c 0 -i 49 -a 0 -x {0.0 7.0 -1 ------- null}
- -t 1.1626632 -s 0 -d 8 -p ack -e 40 -c 0 -i 50 -a 0 -x {0.0 7.0 11 ------- null}
h -t 1.1626632 -s 0 -d 8 -p ack -e 40 -c 0 -i 50 -a 0 -x {0.0 7.0 -1 ------- null}
+ -t 1.1631896 -s 0 -d 8 -p ack -e 40 -c 0 -i 51 -a 0 -x {0.0 7.0 12 ------- null}
- -t 1.1631896 -s 0 -d 8 -p ack -e 40 -c 0 -i 51 -a 0 -x {0.0 7.0 12 ------- null}
h -t 1.1631896 -s 0 -d 8 -p ack -e 40 -c 0 -i 51 -a 0 -x {0.0 7.0 -1 ------- null}
r -t 1.1640344 -s 8 -d 1 -p ack -e 40 -c 0 -i 44 -a 0 -x {5.0 1.0 7 ------- null}
h -t 1.1640344 -s 1 -d 8 -p tcp -e 1540 -c 0 -i 54 -a 0 -x {1.0 5.0 15 ------- null}
h -t 1.1640344 -s 1 -d 8 -p tcp -e 1540 -c 0 -i 55 -a 0 -x {1.0 5.0 16 ------- null}
+ -t 1.1644424 -s 0 -d 8 -p ack -e 40 -c 0 -i 52 -a 0 -x {0.0 7.0 13 ------- null}
- -t 1.1644424 -s 0 -d 8 -p ack -e 40 -c 0 -i 52 -a 0 -x {0.0 7.0 13 ------- null}
h -t 1.1644424 -s 0 -d 8 -p ack -e 40 -c 0 -i 52 -a 0 -x {0.0 7.0 -1 ------- null}
r -t 1.165696 -s 8 -d 5 -p tcp -e 1540 -c 0 -i 30 -a 0 -x {1.0 5.0 9 ------- null}
h -t 1.165696 -s 5 -d 8 -p ack -e 40 -c 0 -i 56 -a 0 -x {5.0 1.0 9 ------- null}
+ -t 1.1657672 -s 0 -d 8 -p ack -e 40 -c 0 -i 53 -a 0 -x {0.0 7.0 14 ------- null}
- -t 1.1657672 -s 0 -d 8 -p ack -e 40 -c 0 -i 53 -a 0 -x {0.0 7.0 14 ------- null}
h -t 1.1657672 -s 0 -d 8 -p ack -e 40 -c 0 -i 53 -a 0 -x {0.0 7.0 -1 ------- null}
r -t 1.1670336 -s 8 -d 5 -p tcp -e 1540 -c 0 -i 31 -a 0 -x {1.0 5.0 10 ------- null}
h -t 1.1670336 -s 5 -d 8 -p ack -e 40 -c 0 -i 57 -a 0 -x {5.0 1.0 10 ------- null}
r -t 1.1671112 -s 8 -d 1 -p ack -e 40 -c 0 -i 45 -a 0 -x {5.0 1.0 8 ------- null}
h -t 1.1671112 -s 1 -d 8 -p tcp -e 1540 -c 0 -i 58 -a 0 -x {1.0 5.0 17 ------- null}
h -t 1.1671112 -s 1 -d 8 -p tcp -e 1540 -c 0 -i 59 -a 0 -x {1.0 5.0 18 ------- null}
r -t 1.1684872 -s 8 -d 5 -p tcp -e 1540 -c 0 -i 36 -a 0 -x {1.0 5.0 11 ------- null}
h -t 1.1684872 -s 5 -d 8 -p ack -e 40 -c 0 -i 60 -a 0 -x {5.0 1.0 11 ------- null}
r -t 1.169812 -s 8 -d 5 -p tcp -e 1540 -c 0 -i 37 -a 0 -x {1.0 5.0 12 ------- null}
h -t 1.169812 -s 5 -d 8 -p ack -e 40 -c 0 -i 61 -a 0 -x {5.0 1.0 12 ------- null}
r -t 1.1710856 -s 8 -d 5 -p tcp -e 1540 -c 0 -i 38 -a 0 -x {1.0 5.0 13 ------- null}
h -t 1.1710856 -s 5 -d 8 -p ack -e 40 -c 0 -i 62 -a 0 -x {5.0 1.0 13 ------- null}
r -t 1.1724104 -s 8 -d 5 -p tcp -e 1540 -c 0 -i 39 -a 0 -x {1.0 5.0 14 ------- null}
h -t 1.1724104 -s 5 -d 8 -p ack -e 40 -c 0 -i 63 -a 0 -x {5.0 1.0 14 ------- null}
r -t 1.1724752 -s 8 -d 7 -p ack -e 40 -c 0 -i 46 -a 0 -x {0.0 7.0 7 ------- null}
h -t 1.1724752 -s 7 -d 8 -p tcp -e 1540 -c 0 -i 64 -a 0 -x {7.0 0.0 15 ------- null}
h -t 1.1724752 -s 7 -d 8 -p tcp -e 1540 -c 0 -i 65 -a 0 -x {7.0 0.0 16 ------- null}
r -t 1.172536 -s 8 -d 7 -p ack -e 40 -c 0 -i 47 -a 0 -x {0.0 7.0 8 ------- null}
h -t 1.172536 -s 7 -d 8 -p tcp -e 1540 -c 0 -i 66 -a 0 -x {7.0 0.0 17 ------- null}
h -t 1.172536 -s 7 -d 8 -p tcp -e 1540 -c 0 -i 67 -a 0 -x {7.0 0.0 18 ------- null}
r -t 1.1725968 -s 8 -d 7 -p ack -e 40 -c 0 -i 48 -a 0 -x {0.0 7.0 9 ------- null}
h -t 1.1725968 -s 7 -d 8 -p tcp -e 1540 -c 0 -i 68 -a 0 -x {7.0 0.0 19 ------- null}
h -t 1.1725968 -s 7 -d 8 -p tcp -e 1540 -c 0 -i 69 -a 0 -x {7.0 0.0 20 ------- null}
r -t 1.1726576 -s 8 -d 7 -p ack -e 40 -c 0 -i 49 -a 0 -x {0.0 7.0 10 ------- null}
h -t 1.1726576 -s 7 -d 8 -p tcp -e 1540 -c 0 -i 70 -a 0 -x {7.0 0.0 21 ------- null}
h -t 1.1726576 -s 7 -d 8 -p tcp -e 1540 -c 0 -i 71 -a 0 -x {7.0 0.0 22 ------- null}
r -t 1.1727184 -s 8 -d 7 -p ack -e 40 -c 0 -i 50 -a 0 -x {0.0 7.0 11 ------- null}
h -t 1.1727184 -s 7 -d 8 -p tcp -e 1540 -c 0 -i 72 -a 0 -x {7.0 0.0 23 ------- null}
h -t 1.1727184 -s 7 -d 8 -p tcp -e 1540 -c 0 -i 73 -a 0 -x {7.0 0.0 24 ------- null}
r -t 1.1732448 -s 8 -d 7 -p ack -e 40 -c 0 -i 51 -a 0 -x {0.0 7.0 12 ------- null}
h -t 1.1732448 -s 7 -d 8 -p tcp -e 1540 -c 0 -i 74 -a 0 -x {7.0 0.0 25 ------- null}
h -t 1.1732448 -s 7 -d 8 -p tcp -e 1540 -c 0 -i 75 -a 0 -x {7.0 0.0 26 ------- null}
+ -t 1.1740344 -s 1 -d 8 -p tcp -e 1540 -c 0 -i 54 -a 0 -x {1.0 5.0 15 ------- null}
- -t 1.1740344 -s 1 -d 8 -p tcp -e 1540 -c 0 -i 54 -a 0 -x {1.0 5.0 15 ------- null}
h -t 1.1740344 -s 1 -d 8 -p tcp -e 1540 -c 0 -i 54 -a 0 -x {1.0 5.0 -1 ------- null}
+ -t 1.1740344 -s 1 -d 8 -p tcp -e 1540 -c 0 -i 55 -a 0 -x {1.0 5.0 16 ------- null}
r -t 1.1744976 -s 8 -d 7 -p ack -e 40 -c 0 -i 52 -a 0 -x {0.0 7.0 13 ------- null}
h -t 1.1744976 -s 7 -d 8 -p tcp -e 1540 -c 0 -i 76 -a 0 -x {7.0 0.0 27 ------- null}
h -t 1.1744976 -s 7 -d 8 -p tcp -e 1540 -c 0 -i 77 -a 0 -x {7.0 0.0 28 ------- null}
- -t 1.1752872 -s 1 -d 8 -p tcp -e 1540 -c 0 -i 55 -a 0 -x {1.0 5.0 16 ------- null}
h -t 1.1752872 -s 1 -d 8 -p tcp -e 1540 -c 0 -i 55 -a 0 -x {1.0 5.0 -1 ------- null}
+ -t 1.175696 -s 5 -d 8 -p ack -e 40 -c 0 -i 56 -a 0 -x {5.0 1.0 9 ------- null}
- -t 1.175696 -s 5 -d 8 -p ack -e 40 -c 0 -i 56 -a 0 -x {5.0 1.0 9 ------- null}
h -t 1.175696 -s 5 -d 8 -p ack -e 40 -c 0 -i 56 -a 0 -x {5.0 1.0 -1 ------- null}
r -t 1.1758224 -s 8 -d 7 -p ack -e 40 -c 0 -i 53 -a 0 -x {0.0 7.0 14 ------- null}
h -t 1.1758224 -s 7 -d 8 -p tcp -e 1540 -c 0 -i 78 -a 0 -x {7.0 0.0 29 ------- null}
h -t 1.1758224 -s 7 -d 8 -p tcp -e 1540 -c 0 -i 79 -a 0 -x {7.0 0.0 30 ------- null}
+ -t 1.1770336 -s 5 -d 8 -p ack -e 40 -c 0 -i 57 -a 0 -x {5.0 1.0 10 ------- null}
- -t 1.1770336 -s 5 -d 8 -p ack -e 40 -c 0 -i 57 -a 0 -x {5.0 1.0 10 ------- null}
h -t 1.1770336 -s 5 -d 8 -p ack -e 40 -c 0 -i 57 -a 0 -x {5.0 1.0 -1 ------- null}
+ -t 1.1771112 -s 1 -d 8 -p tcp -e 1540 -c 0 -i 58 -a 0 -x {1.0 5.0 17 ------- null}
- -t 1.1771112 -s 1 -d 8 -p tcp -e 1540 -c 0 -i 58 -a 0 -x {1.0 5.0 17 ------- null}
h -t 1.1771112 -s 1 -d 8 -p tcp -e 1540 -c 0 -i 58 -a 0 -x {1.0 5.0 -1 ------- null}
+ -t 1.1771112 -s 1 -d 8 -p tcp -e 1540 -c 0 -i 59 -a 0 -x {1.0 5.0 18 ------- null}
- -t 1.178364 -s 1 -d 8 -p tcp -e 1540 -c 0 -i 59 -a 0 -x {1.0 5.0 18 ------- null}
h -t 1.178364 -s 1 -d 8 -p tcp -e 1540 -c 0 -i 59 -a 0 -x {1.0 5.0 -1 ------- null}
+ -t 1.1784872 -s 5 -d 8 -p ack -e 40 -c 0 -i 60 -a 0 -x {5.0 1.0 11 ------- null}
- -t 1.1784872 -s 5 -d 8 -p ack -e 40 -c 0 -i 60 -a 0 -x {5.0 1.0 11 ------- null}
h -t 1.1784872 -s 5 -d 8 -p ack -e 40 -c 0 -i 60 -a 0 -x {5.0 1.0 -1 ------- null}
+ -t 1.179812 -s 5 -d 8 -p ack -e 40 -c 0 -i 61 -a 0 -x {5.0 1.0 12 ------- null}
- -t 1.179812 -s 5 -d 8 -p ack -e 40 -c 0 -i 61 -a 0 -x {5.0 1.0 12 ------- null}
h -t 1.179812 -s 5 -d 8 -p ack -e 40 -c 0 -i 61 -a 0 -x {5.0 1.0 -1 ------- null}
+ -t 1.1810856 -s 5 -d 8 -p ack -e 40 -c 0 -i 62 -a 0 -x {5.0 1.0 13 ------- null}
- -t 1.1810856 -s 5 -d 8 -p ack -e 40 -c 0 -i 62 -a 0 -x {5.0 1.0 13 ------- null}
h -t 1.1810856 -s 5 -d 8 -p ack -e 40 -c 0 -i 62 -a 0 -x {5.0 1.0 -1 ------- null}
+ -t 1.1824104 -s 5 -d 8 -p ack -e 40 -c 0 -i 63 -a 0 -x {5.0 1.0 14 ------- null}
- -t 1.1824104 -s 5 -d 8 -p ack -e 40 -c 0 -i 63 -a 0 -x {5.0 1.0 14 ------- null}
h -t 1.1824104 -s 5 -d 8 -p ack -e 40 -c 0 -i 63 -a 0 -x {5.0 1.0 -1 ------- null}
+ -t 1.1824752 -s 7 -d 8 -p tcp -e 1540 -c 0 -i 64 -a 0 -x {7.0 0.0 15 ------- null}
- -t 1.1824752 -s 7 -d 8 -p tcp -e 1540 -c 0 -i 64 -a 0 -x {7.0 0.0 15 ------- null}
h -t 1.1824752 -s 7 -d 8 -p tcp -e 1540 -c 0 -i 64 -a 0 -x {7.0 0.0 -1 ------- null}
+ -t 1.1824752 -s 7 -d 8 -p tcp -e 1540 -c 0 -i 65 -a 0 -x {7.0 0.0 16 ------- null}
+ -t 1.182536 -s 7 -d 8 -p tcp -e 1540 -c 0 -i 66 -a 0 -x {7.0 0.0 17 ------- null}
+ -t 1.182536 -s 7 -d 8 -p tcp -e 1540 -c 0 -i 67 -a 0 -x {7.0 0.0 18 ------- null}
+ -t 1.1825968 -s 7 -d 8 -p tcp -e 1540 -c 0 -i 68 -a 0 -x {7.0 0.0 19 ------- null}
+ -t 1.1825968 -s 7 -d 8 -p tcp -e 1540 -c 0 -i 69 -a 0 -x {7.0 0.0 20 ------- null}
+ -t 1.1826576 -s 7 -d 8 -p tcp -e 1540 -c 0 -i 70 -a 0 -x {7.0 0.0 21 ------- null}
+ -t 1.1826576 -s 7 -d 8 -p tcp -e 1540 -c 0 -i 71 -a 0 -x {7.0 0.0 22 ------- null}
+ -t 1.1827184 -s 7 -d 8 -p tcp -e 1540 -c 0 -i 72 -a 0 -x {7.0 0.0 23 ------- null}
+ -t 1.1827184 -s 7 -d 8 -p tcp -e 1540 -c 0 -i 73 -a 0 -x {7.0 0.0 24 ------- null}
+ -t 1.1832448 -s 7 -d 8 -p tcp -e 1540 -c 0 -i 74 -a 0 -x {7.0 0.0 25 ------- null}
+ -t 1.1832448 -s 7 -d 8 -p tcp -e 1540 -c 0 -i 75 -a 0 -x {7.0 0.0 26 ------- null}
- -t 1.183728 -s 7 -d 8 -p tcp -e 1540 -c 0 -i 65 -a 0 -x {7.0 0.0 16 ------- null}
h -t 1.183728 -s 7 -d 8 -p tcp -e 1540 -c 0 -i 65 -a 0 -x {7.0 0.0 -1 ------- null}
+ -t 1.1844976 -s 7 -d 8 -p tcp -e 1540 -c 0 -i 76 -a 0 -x {7.0 0.0 27 ------- null}
+ -t 1.1844976 -s 7 -d 8 -p tcp -e 1540 -c 0 -i 77 -a 0 -x {7.0 0.0 28 ------- null}
- -t 1.1849808 -s 7 -d 8 -p tcp -e 1540 -c 0 -i 66 -a 0 -x {7.0 0.0 17 ------- null}
h -t 1.1849808 -s 7 -d 8 -p tcp -e 1540 -c 0 -i 66 -a 0 -x {7.0 0.0 -1 ------- null}
r -t 1.1852816 -s 8 -d 5 -p tcp -e 1540 -c 0 -i 54 -a 0 -x {1.0 5.0 15 ------- null}
h -t 1.1852816 -s 5 -d 8 -p ack -e 40 -c 0 -i 80 -a 0 -x {5.0 1.0 15 ------- null}
+ -t 1.1858224 -s 7 -d 8 -p tcp -e 1540 -c 0 -i 78 -a 0 -x {7.0 0.0 29 ------- null}
+ -t 1.1858224 -s 7 -d 8 -p tcp -e 1540 -c 0 -i 79 -a 0 -x {7.0 0.0 30 ------- null}
- -t 1.1862336 -s 7 -d 8 -p tcp -e 1540 -c 0 -i 67 -a 0 -x {7.0 0.0 18 ------- null}