V -t * -v 1.0a5 -a 0
A -t * -n 1 -p 0 -o 0x7fffffff -c 30 -a 1
A -t * -h 1 -m 1073741823 -s 0
n -t * -a 0 -s 0 -S UP -v circle -c black -i black
n -t * -a 1 -s 1 -S UP -v circle -c black -i black
n -t * -a 2 -s 2 -S UP -v circle -c black -i black
n -t * -a 3 -s 3 -S UP -v circle -c black -i black
l -t * -s 0 -d 2 -S UP -r 100000000 -D 0.01 -c black -o right-down
l -t * -s 1 -d 2 -S UP -r 100000000 -D 0.01 -c black -o right-up
l -t * -s 2 -d 3 -S UP -r 100000000 -D 0.01 -c black -o right
+ -t 1 -s 0 -d 2 -p tcp -e 40 -c 0 -i 0 -a 0 -x {0.0 3.0 0 ------- null}
- -t 1 -s 0 -d 2 -p tcp -e 40 -c 0 -i 0 -a 0 -x {0.0 3.0 0 ------- null}
h -t 1 -s 0 -d 2 -p tcp -e 40 -c 0 -i 0 -a 0 -x {0.0 3.0 -1 ------- null}
+ -t 1 -s 1 -d 2 -p cbr -e 1000 -c 0 -i 1 -a 0 -x {1.0 3.1 0 ------- null}
- -t 1 -s 1 -d 2 -p cbr -e 1000 -c 0 -i 1 -a 0 -x {1.0 3.1 0 ------- null}
h -t 1 -s 1 -d 2 -p cbr -e 1000 -c 0 -i 1 -a 0 -x {1.0 3.1 -1 ------- null}
+ -t 1.008 -s 1 -d 2 -p cbr -e 1000 -c 0 -i 2 -a 0 -x {1.0 3.1 1 ------- null}
- -t 1.008 -s 1 -d 2 -p cbr -e 1000 -c 0 -i 2 -a 0 -x {1.0 3.1 1 ------- null}
h -t 1.008 -s 1 -d 2 -p cbr -e 1000 -c 0 -i 2 -a 0 -x {1.0 3.1 -1 ------- null}
r -t 1.0100032 -s 0 -d 2 -p tcp -e 40 -c 0 -i 0 -a 0 -x {0.0 3.0 0 ------- null}
+ -t 1.0100032 -s 2 -d 3 -p tcp -e 40 -c 0 -i 0 -a 0 -x {0.0 3.0 0 ------- null}
- -t 1.0100032 -s 2 -d 3 -p tcp -e 40 -c 0 -i 0 -a 0 -x {0.0 3.0 0 ------- null}
h -t 1.0100032 -s 2 -d 3 -p tcp -e 40 -c 0 -i 0 -a 0 -x {0.0 3.0 -1 ------- null}
r -t 1.01008 -s 1 -d 2 -p cbr -e 1000 -c 0 -i 1 -a 0 -x {1.0 3.1 0 ------- null}
+ -t 1.01008 -s 2 -d 3 -p cbr -e 1000 -c 0 -i 1 -a 0 -x {1.0 3.1 0 ------- null}
- -t 1.01008 -s 2 -d 3 -p cbr -e 1000 -c 0 -i 1 -a 0 -x {1.0 3.1 0 ------- null}
h -t 1.01008 -s 2 -d 3 -p cbr -e 1000 -c 0 -i 1 -a 0 -x {1.0 3.1 -1 ------- null}
+ -t 1.016 -s 1 -d 2 -p cbr -e 1000 -c 0 -i 3 -a 0 -x {1.0 3.1 2 ------- null}
- -t 1.016 -s 1 -d 2 -p cbr -e 1000 -c 0 -i 3 -a 0 -x {1.0 3.1 2 ------- null}
h -t 1.016 -s 1 -d 2 -p cbr -e 1000 -c 0 -i 3 -a 0 -x {1.0 3.1 -1 ------- null}
r -t 1.01808 -s 1 -d 2 -p cbr -e 1000 -c 0 -i 2 -a 0 -x {1.0 3.1 1 ------- null}
+ -t 1.01808 -s 2 -d 3 -p cbr -e 1000 -c 0 -i 2 -a 0 -x {1.0 3.1 1 ------- null}
- -t 1.01808 -s 2 -d 3 -p cbr -e 1000 -c 0 -i 2 -a 0 -x {1.0 3.1 1 ------- null}
h -t 1.01808 -s 2 -d 3 -p cbr -e 1000 -c 0 -i 2 -a 0 -x {1.0 3.1 -1 ------- null}
r -t 1.0200064 -s 2 -d 3 -p tcp -e 40 -c 0 -i 0 -a 0 -x {0.0 3.0 0 ------- null}
+ -t 1.0200064 -s 3 -d 2 -p ack -e 40 -c 0 -i 4 -a 0 -x {3.0 0.0 0 ------- null}
- -t 1.0200064 -s 3 -d 2 -p ack -e 40 -c 0 -i 4 -a 0 -x {3.0 0.0 0 ------- null}
h -t 1.0200064 -s 3 -d 2 -p ack -e 40 -c 0 -i 4 -a 0 -x {3.0 0.0 -1 ------- null}
r -t 1.02016 -s 2 -d 3 -p cbr -e 1000 -c 0 -i 1 -a 0 -x {1.0 3.1 0 ------- null}
+ -t 1.024 -s 1 -d 2 -p cbr -e 1000 -c 0 -i 5 -a 0 -x {1.0 3.1 3 ------- null}
- -t 1.024 -s 1 -d 2 -p cbr -e 1000 -c 0 -i 5 -a 0 -x {1.0 3.1 3 ------- null}
h -t 1.024 -s 1 -d 2 -p cbr -e 1000 -c 0 -i 5 -a 0 -x {1.0 3.1 -1 ------- null}
r -t 1.02608 -s 1 -d 2 -p cbr -e 1000 -c 0 -i 3 -a 0 -x {1.0 3.1 2 ------- null}
+ -t 1.02608 -s 2 -d 3 -p cbr -e 1000 -c 0 -i 3 -a 0 -x {1.0 3.1 2 ------- null}
- -t 1.02608 -s 2 -d 3 -p cbr -e 1000 -c 0 -i 3 -a 0 -x {1.0 3.1 2 ------- null}
h -t 1.02608 -s 2 -d 3 -p cbr -e 1000 -c 0 -i 3 -a 0 -x {1.0 3.1 -1 ------- null}
r -t 1.02816 -s 2 -d 3 -p cbr -e 1000 -c 0 -i 2 -a 0 -x {1.0 3.1 1 ------- null}
r -t 1.0300096 -s 3 -d 2 -p ack -e 40 -c 0 -i 4 -a 0 -x {3.0 0.0 0 ------- null}
+ -t 1.0300096 -s 2 -d 0 -p ack -e 40 -c 0 -i 4 -a 0 -x {3.0 0.0 0 ------- null}
- -t 1.0300096 -s 2 -d 0 -p ack -e 40 -c 0 -i 4 -a 0 -x {3.0 0.0 0 ------- null}
h -t 1.0300096 -s 2 -d 0 -p ack -e 40 -c 0 -i 4 -a 0 -x {3.0 0.0 -1 ------- null}
+ -t 1.032 -s 1 -d 2 -p cbr -e 1000 -c 0 -i 6 -a 0 -x {1.0 3.1 4 ------- null}
- -t 1.032 -s 1 -d 2 -p cbr -e 1000 -c 0 -i 6 -a 0 -x {1.0 3.1 4 ------- null}
h -t 1.032 -s 1 -d 2 -p cbr -e 1000 -c 0 -i 6 -a 0 -x {1.0 3.1 -1 ------- null}
r -t 1.03408 -s 1 -d 2 -p cbr -e 1000 -c 0 -i 5 -a 0 -x {1.0 3.1 3 ------- null}
+ -t 1.03408 -s 2 -d 3 -p cbr -e 1000 -c 0 -i 5 -a 0 -x {1.0 3.1 3 ------- null}
- -t 1.03408 -s 2 -d 3 -p cbr -e 1000 -c 0 -i 5 -a 0 -x {1.0 3.1 3 ------- null}
h -t 1.03408 -s 2 -d 3 -p cbr -e 1000 -c 0 -i 5 -a 0 -x {1.0 3.1 -1 ------- null}
r -t 1.03616 -s 2 -d 3 -p cbr -e 1000 -c 0 -i 3 -a 0 -x {1.0 3.1 2 ------- null}
+ -t 1.04 -s 1 -d 2 -p cbr -e 1000 -c 0 -i 7 -a 0 -x {1.0 3.1 5 ------- null}
- -t 1.04 -s 1 -d 2 -p cbr -e 1000 -c 0 -i 7 -a 0 -x {1.0 3.1 5 ------- null}
h -t 1.04 -s 1 -d 2 -p cbr -e 1000 -c 0 -i 7 -a 0 -x {1.0 3.1 -1 ------- null}
r -t 1.0400128 -s 2 -d 0 -p ack -e 40 -c 0 -i 4 -a 0 -x {3.0 0.0 0 ------- null}
+ -t 1.0400128 -s 0 -d 2 -p tcp -e 1540 -c 0 -i 8 -a 0 -x {0.0 3.0 1 ------- null}
- -t 1.0400128 -s 0 -d 2 -p tcp -e 1540 -c 0 -i 8 -a 0 -x {0.0 3.0 1 ------- null}
h -t 1.0400128 -s 0 -d 2 -p tcp -e 1540 -c 0 -i 8 -a 0 -x {0.0 3.0 -1 ------- null}
+ -t 1.0400128 -s 0 -d 2 -p tcp -e 1540 -c 0 -i 9 -a 0 -x {0.0 3.0 2 ------- null}
- -t 1.040136 -s 0 -d 2 -p tcp -e 1540 -c 0 -i 9 -a 0 -x {0.0 3.0 2 ------- null}
h -t 1.040136 -s 0 -d 2 -p tcp -e 1540 -c 0 -i 9 -a 0 -x {0.0 3.0 -1 ------- null}
r -t 1.04208 -s 1 -d 2 -p cbr -e 1000 -c 0 -i 6 -a 0 -x {1.0 3.1 4 ------- null}
+ -t 1.04208 -s 2 -d 3 -p cbr -e 1000 -c 0 -i 6 -a 0 -x {1.0 3.1 4 ------- null}
- -t 1.04208 -s 2 -d 3 -p cbr -e 1000 -c 0 -i 6 -a 0 -x {1.0 3.1 4 ------- null}
h -t 1.04208 -s 2 -d 3 -p cbr -e 1000 -c 0 -i 6 -a 0 -x {1.0 3.1 -1 ------- null}
r -t 1.04416 -s 2 -d 3 -p cbr -e 1000 -c 0 -i 5 -a 0 -x {1.0 3.1 3 ------- null}
+ -t 1.048 -s 1 -d 2 -p cbr -e 1000 -c 0 -i 10 -a 0 -x {1.0 3.1 6 ------- null}
- -t 1.048 -s 1 -d 2 -p cbr -e 1000 -c 0 -i 10 -a 0 -x {1.0 3.1 6 ------- null}
h -t 1.048 -s 1 -d 2 -p cbr -e 1000 -c 0 -i 10 -a 0 -x {1.0 3.1 -1 ------- null}
r -t 1.05008 -s 1 -d 2 -p cbr -e 1000 -c 0 -i 7 -a 0 -x {1.0 3.1 5 ------- null}
+ -t 1.05008 -s 2 -d 3 -p cbr -e 1000 -c 0 -i 7 -a 0 -x {1.0 3.1 5 ------- null}
- -t 1.05008 -s 2 -d 3 -p cbr -e 1000 -c 0 -i 7 -a 0 -x {1.0 3.1 5 ------- null}
h -t 1.05008 -s 2 -d 3 -p cbr -e 1000 -c 0 -i 7 -a 0 -x {1.0 3.1 -1 ------- null}
r -t 1.050136 -s 0 -d 2 -p tcp -e 1540 -c 0 -i 8 -a 0 -x {0.0 3.0 1 ------- null}
+ -t 1.050136 -s 2 -d 3 -p tcp -e 1540 -c 0 -i 8 -a 0 -x {0.0 3.0 1 ------- null}
- -t 1.05016 -s 2 -d 3 -p tcp -e 1540 -c 0 -i 8 -a 0 -x {0.0 3.0 1 ------- null}
h -t 1.05016 -s 2 -d 3 -p tcp -e 1540 -c 0 -i 8 -a 0 -x {0.0 3.0 -1 ------- null}
r -t 1.0502592 -s 0 -d 2 -p tcp -e 1540 -c 0 -i 9 -a 0 -x {0.0 3.0 2 ------- null}
+ -t 1.0502592 -s 2 -d 3 -p tcp -e 1540 -c 0 -i 9 -a 0 -x {0.0 3.0 2 ------- null}
- -t 1.0502832 -s 2 -d 3 -p tcp -e 1540 -c 0 -i 9 -a 0 -x {0.0 3.0 2 ------- null}
h -t 1.0502832 -s 2 -d 3 -p tcp -e 1540 -c 0 -i 9 -a 0 -x {0.0 3.0 -1 ------- null}
r -t 1.05216 -s 2 -d 3 -p cbr -e 1000 -c 0 -i 6 -a 0 -x {1.0 3.1 4 ------- null}
+ -t 1.056 -s 1 -d 2 -p cbr -e 1000 -c 0 -i 11 -a 0 -x {1.0 3.1 7 ------- null}
- -t 1.056 -s 1 -d 2 -p cbr -e 1000 -c 0 -i 11 -a 0 -x {1.0 3.1 7 ------- null}
h -t 1.056 -s 1 -d 2 -p cbr -e 1000 -c 0 -i 11 -a 0 -x {1.0 3.1 -1 ------- null}
r -t 1.05808 -s 1 -d 2 -p cbr -e 1000 -c 0 -i 10 -a 0 -x {1.0 3.1 6 ------- null}
+ -t 1.05808 -s 2 -d 3 -p cbr -e 1000 -c 0 -i 10 -a 0 -x {1.0 3.1 6 ------- null}
- -t 1.05808 -s 2 -d 3 -p cbr -e 1000 -c 0 -i 10 -a 0 -x {1.0 3.1 6 ------- null}
h -t 1.05808 -s 2 -d 3 -p cbr -e 1000 -c 0 -i 10 -a 0 -x {1.0 3.1 -1 ------- null}
r -t 1.06016 -s 2 -d 3 -p cbr -e 1000 -c 0 -i 7 -a 0 -x {1.0 3.1 5 ------- null}
r -t 1.0602832 -s 2 -d 3 -p tcp -e 1540 -c 0 -i 8 -a 0 -x {0.0 3.0 1 ------- null}
+ -t 1.0602832 -s 3 -d 2 -p ack -e 40 -c 0 -i 12 -a 0 -x {3.0 0.0 1 ------- null}
- -t 1.0602832 -s 3 -d 2 -p ack -e 40 -c 0 -i 12 -a 0 -x {3.0 0.0 1 ------- null}
h -t 1.0602832 -s 3 -d 2 -p ack -e 40 -c 0 -i 12 -a 0 -x {3.0 0.0 -1 ------- null}
r -t 1.0604064 -s 2 -d 3 -p tcp -e 1540 -c 0 -i 9 -a 0 -x {0.0 3.0 2 ------- null}
+ -t 1.0604064 -s 3 -d 2 -p ack -e 40 -c 0 -i 13 -a 0 -x {3.0 0.0 2 ------- null}
- -t 1.0604064 -s 3 -d 2 -p ack -e 40 -c 0 -i 13 -a 0 -x {3.0 0.0 2 ------- null}
h -t 1.0604064 -s 3 -d 2 -p ack -e 40 -c 0 -i 13 -a 0 -x {3.0 0.0 -1 ------- null}
+ -t 1.064 -s 1 -d 2 -p cbr -e 1000 -c 0 -i 14 -a 0 -x {1.0 3.1 8 ------- null}
- -t 1.064 -s 1 -d 2 -p cbr -e 1000 -c 0 -i 14 -a 0 -x {1.0 3.1 8 ------- null}
h -t 1.064 -s 1 -d 2 -p cbr -e 1000 -c 0 -i 14 -a 0 -x {1.0 3.1 -1 ------- null}
r -t 1.06608 -s 1 -d 2 -p cbr -e 1000 -c 0 -i 11 -a 0 -x {1.0 3.1 7 ------- null}
+ -t 1.06608 -s 2 -d 3 -p cbr -e 1000 -c 0 -i 11 -a 0 -x {1.0 3.1 7 ------- null}
- -t 1.06608 -s 2 -d 3 -p cbr -e 1000 -c 0 -i 11 -a 0 -x {1.0 3.1 7 ------- null}
h -t 1.06608 -s 2 -d 3 -p cbr -e 1000 -c 0 -i 11 -a 0 -x {1.0 3.1 -1 ------- null}
r -t 1.06816 -s 2 -d 3 -p cbr -e 1000 -c 0 -i 10 -a 0 -x {1.0 3.1 6 ------- null}
r -t 1.0702864 -s 3 -d 2 -p ack -e 40 -c 0 -i 12 -a 0 -x {3.0 0.0 1 ------- null}
+ -t 1.0702864 -s 2 -d 0 -p ack -e 40 -c 0 -i 12 -a 0 -x {3.0 0.0 1 ------- null}
- -t 1.0702864 -s 2 -d 0 -p ack -e 40 -c 0 -i 12 -a 0 -x {3.0 0.0 1 ------- null}
h -t 1.0702864 -s 2 -d 0 -p ack -e 40 -c 0 -i 12 -a 0 -x {3.0 0.0 -1 ------- null}
r -t 1.0704096 -s 3 -d 2 -p ack -e 40 -c 0 -i 13 -a 0 -x {3.0 0.0 2 ------- null}
+ -t 1.0704096 -s 2 -d 0 -p ack -e 40 -c 0 -i 13 -a 0 -x {3.0 0.0 2 ------- null}
- -t 1.0704096 -s 2 -d 0 -p ack -e 40 -c 0 -i 13 -a 0 -x {3.0 0.0 2 ------- null}
h -t 1.0704096 -s 2 -d 0 -p ack -e 40 -c 0 -i 13 -a 0 -x {3.0 0.0 -1 ------- null}
+ -t 1.072 -s 1 -d 2 -p cbr -e 1000 -c 0 -i 15 -a 0 -x {1.0 3.1 9 ------- null}
- -t 1.072 -s 1 -d 2 -p cbr -e 1000 -c 0 -i 15 -a 0 -x {1.0 3.1 9 ------- null}
h -t 1.072 -s 1 -d 2 -p cbr -e 1000 -c 0 -i 15 -a 0 -x {1.0 3.1 -1 ------- null}
r -t 1.07408 -s 1 -d 2 -p cbr -e 1000 -c 0 -i 14 -a 0 -x {1.0 3.1 8 ------- null}
+ -t 1.07408 -s 2 -d 3 -p cbr -e 1000 -c 0 -i 14 -a 0 -x {1.0 3.1 8 ------- null}
- -t 1.07408 -s 2 -d 3 -p cbr -e 1000 -c 0 -i 14 -a 0 -x {1.0 3.1 8 ------- null}
h -t 1.07408 -s 2 -d 3 -p cbr -e 1000 -c 0 -i 14 -a 0 -x {1.0 3.1 -1 ------- null}
r -t 1.07616 -s 2 -d 3 -p cbr -e 1000 -c 0 -i 11 -a 0 -x {1.0 3.1 7 ------- null}
+ -t 1.08 -s 1 -d 2 -p cbr -e 1000 -c 0 -i 16 -a 0 -x {1.0 3.1 10 ------- null}
- -t 1.08 -s 1 -d 2 -p cbr -e 1000 -c 0 -i 16 -a 0 -x {1.0 3.1 10 ------- null}
h -t 1.08 -s 1 -d 2 -p cbr -e 1000 -c 0 -i 16 -a 0 -x {1.0 3.1 -1 ------- null}
r -t 1.0802896 -s 2 -d 0 -p ack -e 40 -c 0 -i 12 -a 0 -x {3.0 0.0 1 ------- null}
+ -t 1.0802896 -s 0 -d 2 -p tcp -e 1540 -c 0 -i 17 -a 0 -x {0.0 3.0 3 ------- null}
- -t 1.0802896 -s 0 -d 2 -p tcp -e 1540 -c 0 -i 17 -a 0 -x {0.0 3.0 3 ------- null}
h -t 1.0802896 -s 0 -d 2 -p tcp -e 1540 -c 0 -i 17 -a 0 -x {0.0 3.0 -1 ------- null}
+ -t 1.0802896 -s 0 -d 2 -p tcp -e 1540 -c 0 -i 18 -a 0 -x {0.0 3.0 4 ------- null}
r -t 1.0804128 -s 2 -d 0 -p ack -e 40 -c 0 -i 13 -a 0 -x {3.0 0.0 2 ------- null}
+ -t 1.0804128 -s 0 -d 2 -p tcp -e 1540 -c 0 -i 19 -a 0 -x {0.0 3.0 5 ------- null}
+ -t 1.0804128 -s 0 -d 2 -p tcp -e 1540 -c 0 -i 20 -a 0 -x {0.0 3.0 6 ------- null}
- -t 1.0804128 -s 0 -d 2 -p tcp -e 1540 -c 0 -i 18 -a 0 -x {0.0 3.0 4 ------- null}
h -t 1.0804128 -s 0 -d 2 -p tcp -e 1540 -c 0 -i 18 -a 0 -x {0.0 3.0 -1 ------- null}
- -t 1.080536 -s 0 -d 2 -p tcp -e 1540 -c 0 -i 19 -a 0 -x {0.0 3.0 5 ------- null}
h -t 1.080536 -s 0 -d 2 -p tcp -e 1540 -c 0 -i 19 -a 0 -x {0.0 3.0 -1 ------- null}
- -t 1.0806592 -s 0 -d 2 -p tcp -e 1540 -c 0 -i 20 -a 0 -x {0.0 3.0 6 ------- null}
h -t 1.0806592 -s 0 -d 2 -p tcp -e 1540 -c 0 -i 20 -a 0 -x {0.0 3.0 -1 ------- null}
r -t 1.08208 -s 1 -d 2 -p cbr -e 1000 -c 0 -i 15 -a 0 -x {1.0 3.1 9 ------- null}
+ -t 1.08208 -s 2 -d 3 -p cbr -e 1000 -c 0 -i 15 -a 0 -x {1.0 3.1 9 ------- null}
- -t 1.08208 -s 2 -d 3 -p cbr -e 1000 -c 0 -i 15 -a 0 -x {1.0 3.1 9 ------- null}
h -t 1.08208 -s 2 -d 3 -p cbr -e 1000 -c 0 -i 15 -a 0 -x {1.0 3.1 -1 ------- null}
r -t 1.08416 -s 2 -d 3 -p cbr -e 1000 -c 0 -i 14 -a 0 -x {1.0 3.1 8 ------- null}
+ -t 1.088 -s 1 -d 2 -p cbr -e 1000 -c 0 -i 21 -a 0 -x {1.0 3.1 11 ------- null}
- -t 1.088 -s 1 -d 2 -p cbr -e 1000 -c 0 -i 21 -a 0 -x {1.0 3.1 11 ------- null}
h -t 1.088 -s 1 -d 2 -p cbr -e 1000 -c 0 -i 21 -a 0 -x {1.0 3.1 -1 ------- null}
r -t 1.09008 -s 1 -d 2 -p cbr -e 1000 -c 0 -i 16 -a 0 -x {1.0 3.1 10 ------- null}
+ -t 1.09008 -s 2 -d 3 -p cbr -e 1000 -c 0 -i 16 -a 0 -x {1.0 3.1 10 ------- null}
- -t 1.09008 -s 2 -d 3 -p cbr -e 1000 -c 0 -i 16 -a 0 -x {1.0 3.1 10 ------- null}
h -t 1.09008 -s 2 -d 3 -p cbr -e 1000 -c 0 -i 16 -a 0 -x {1.0 3.1 -1 ------- null}
r -t 1.0904128 -s 0 -d 2 -p tcp -e 1540 -c 0 -i 17 -a 0 -x {0.0 3.0 3 ------- null}
+ -t 1.0904128 -s 2 -d 3 -p tcp -e 1540 -c 0 -i 17 -a 0 -x {0.0 3.0 3 ------- null}
- -t 1.0904128 -s 2 -d 3 -p tcp -e 1540 -c 0 -i 17 -a 0 -x {0.0 3.0 3 ------- null}
h -t 1.0904128 -s 2 -d 3 -p tcp -e 1540 -c 0 -i 17 -a 0 -x {0.0 3.0 -1 ------- null}
r -t 1.090536 -s 0 -d 2 -p tcp -e 1540 -c 0 -i 18 -a 0 -x {0.0 3.0 4 ------- null}
+ -t 1.090536 -s 2 -d 3 -p tcp -e 1540 -c 0 -i 18 -a 0 -x {0.0 3.0 4 ------- null}
- -t 1.090536 -s 2 -d 3 -p tcp -e 1540 -c 0 -i 18 -a 0 -x {0.0 3.0 4 ------- null}
h -t 1.090536 -s 2 -d 3 -p tcp -e 1540 -c 0 -i 18 -a 0 -x {0.0 3.0 -1 ------- null}
r -t 1.0906592 -s 0 -d 2 -p tcp -e 1540 -c 0 -i 19 -a 0 -x {0.0 3.0 5 ------- null}
+ -t 1.0906592 -s 2 -d 3 -p tcp -e 1540 -c 0 -i 19 -a 0 -x {0.0 3.0 5 ------- null}
- -t 1.0906592 -s 2 -d 3 -p tcp -e 1540 -c 0 -i 19 -a 0 -x {0.0 3.0 5 ------- null}
h -t 1.0906592 -s 2 -d 3 -p tcp -e 1540 -c 0 -i 19 -a 0 -x {0.0 3.0 -1 ------- null}
r -t 1.0907824 -s 0 -d 2 -p tcp -e 1540 -c 0 -i 20 -a 0 -x {0.0 3.0 6 ------- null}
+ -t 1.0907824 -s 2 -d 3 -p tcp -e 1540 -c 0 -i 20 -a 0 -x {0.0 3.0 6 ------- null}
- -t 1.0907824 -s 2 -d 3 -p tcp -e 1540 -c 0 -i 20 -a 0 -x {0.0 3.0 6 ------- null}
h -t 1.0907824 -s 2 -d 3 -p tcp -e 1540 -c 0 -i 20 -a 0 -x {0.0 3.0 -1 ------- null}
r -t 1.09216 -s 2 -d 3 -p cbr -e 1000 -c 0 -i 15 -a 0 -x {1.0 3.1 9 ------- null}
+ -t 1.096 -s 1 -d 2 -p cbr -e 1000 -c 0 -i 22 -a 0 -x {1.0 3.1 12 ------- null}
- -t 1.096 -s 1 -d 2 -p cbr -e 1000 -c 0 -i 22 -a 0 -x {1.0 3.1 12 ------- null}
h -t 1.096 -s 1 -d 2 -p cbr -e 1000 -c 0 -i 22 -a 0 -x {1.0 3.1 -1 ------- null}
r -t 1.09808 -s 1 -d 2 -p cbr -e 1000 -c 0 -i 21 -a 0 -x {1.0 3.1 11 ------- null}
+ -t 1.09808 -s 2 -d 3 -p cbr -e 1000 -c 0 -i 21 -a 0 -x {1.0 3.1 11 ------- null}
- -t 1.09808 -s 2 -d 3 -p cbr -e 1000 -c 0 -i 21 -a 0 -x {1.0 3.1 11 ------- null}
h -t 1.09808 -s 2 -d 3 -p cbr -e 1000 -c 0 -i 21 -a 0 -x {1.0 3.1 -1 ------- null}
r -t 1.10016 -s 2 -d 3 -p cbr -e 1000 -c 0 -i 16 -a 0 -x {1.0 3.1 10 ------- null}
r -t 1.100536 -s 2 -d 3 -p tcp -e 1540 -c 0 -i 17 -a 0 -x {0.0 3.0 3 ------- null}
+ -t 1.100536 -s 3 -d 2 -p ack -e 40 -c 0 -i 23 -a 0 -x {3.0 0.0 3 ------- null}
- -t 1.100536 -s 3 -d 2 -p ack -e 40 -c 0 -i 23 -a 0 -x {3.0 0.0 3 ------- null}
h -t 1.100536 -s 3 -d 2 -p ack -e 40 -c 0 -i 23 -a 0 -x {3.0 0.0 -1 ------- null}
r -t 1.1006592 -s 2 -d 3 -p tcp -e 1540 -c 0 -i 18 -a 0 -x {0.0 3.0 4 ------- null}
+ -t 1.1006592 -s 3 -d 2 -p ack -e 40 -c 0 -i 24 -a 0 -x {3.0 0.0 4 ------- null}
- -t 1.1006592 -s 3 -d 2 -p ack -e 40 -c 0 -i 24 -a 0 -x {3.0 0.0 4 ------- null}
h -t 1.1006592 -s 3 -d 2 -p ack -e 40 -c 0 -i 24 -a 0 -x {3.0 0.0 -1 ------- null}
r -t 1.1007824 -s 2 -d 3 -p tcp -e 1540 -c 0 -i 19 -a 0 -x {0.0 3.0 5 ------- null}
+ -t 1.1007824 -s 3 -d 2 -p ack -e 40 -c 0 -i 25 -a 0 -x {3.0 0.0 5 ------- null}
- -t 1.1007824 -s 3 -d 2 -p ack -e 40 -c 0 -i 25 -a 0 -x {3.0 0.0 5 ------- null}
h -t 1.1007824 -s 3 -d 2 -p ack -e 40 -c 0 -i 25 -a 0 -x {3.0 0.0 -1 ------- null}
r -t 1.1009056 -s 2 -d 3 -p tcp -e 1540 -c 0 -i 20 -a 0 -x {0.0 3.0 6 ------- null}
+ -t 1.1009056 -s 3 -d 2 -p ack -e 40 -c 0 -i 26 -a 0 -x {3.0 0.0 6 ------- null}
- -t 1.1009056 -s 3 -d 2 -p ack -e 40 -c 0 -i 26 -a 0 -x {3.0 0.0 6 ------- null}
h -t 1.1009056 -s 3 -d 2 -p ack -e 40 -c 0 -i 26 -a 0 -x {3.0 0.0 -1 ------- null}
+ -t 1.104 -s 1 -d 2 -p cbr -e 1000 -c 0 -i 27 -a 0 -x {1.0 3.1 13 ------- null}
- -t 1.104 -s 1 -d 2 -p cbr -e 1000 -c 0 -i 27 -a 0 -x {1.0 3.1 13 ------- null}
h -t 1.104 -s 1 -d 2 -p cbr -e 1000 -c 0 -i 27 -a 0 -x {1.0 3.1 -1 ------- null}
r -t 1.10608 -s 1 -d 2 -p cbr -e 1000 -c 0 -i 22 -a 0 -x {1.0 3.1 12 ------- null}
+ -t 1.10608 -s 2 -d 3 -p cbr -e 1000 -c 0 -i 22 -a 0 -x {1.0 3.1 12 ------- null}
- -t 1.10608 -s 2 -d 3 -p cbr -e 1000 -c 0 -i 22 -a 0 -x {1.0 3.1 12 ------- null}
h -t 1.10608 -s 2 -d 3 -p cbr -e 1000 -c 0 -i 22 -a 0 -x {1.0 3.1 -1 ------- null}
r -t 1.10816 -s 2 -d 3 -p cbr -e 1000 -c 0 -i 21 -a 0 -x {1.0 3.1 11 ------- null}
r -t 1.1105392 -s 3 -d 2 -p ack -e 40 -c 0 -i 23 -a 0 -x {3.0 0.0 3 ------- null}
+ -t 1.1105392 -s 2 -d 0 -p ack -e 40 -c 0 -i 23 -a 0 -x {3.0 0.0 3 ------- null}
- -t 1.1105392 -s 2 -d 0 -p ack -e 40 -c 0 -i 23 -a 0 -x {3.0 0.0 3 ------- null}
h -t 1.1105392 -s 2 -d 0 -p ack -e 40 -c 0 -i 23 -a 0 -x {3.0 0.0 -1 ------- null}
r -t 1.1106624 -s 3 -d 2 -p ack -e 40 -c 0 -i 24 -a 0 -x {3.0 0.0 4 ------- null}
+ -t 1.1106624 -s 2 -d 0 -p ack -e 40 -c 0 -i 24 -a 0 -x {3.0 0.0 4 ------- null}
- -t 1.1106624 -s 2 -d 0 -p ack -e 40 -c 0 -i 24 -a 0 -x {3.0 0.0 4 ------- null}
h -t 1.1106624 -s 2 -d 0 -p ack -e 40 -c 0 -i 24 -a 0 -x {3.0 0.0 -1 ------- null}
r -t 1.1107856 -s 3 -d 2 -p ack -e 40 -c 0 -i 25 -a 0 -x {3.0 0.0 5 ------- null}
+ -t 1.1107856 -s 2 -d 0 -p ack -e 40 -c 0 -i 25 -a 0 -x {3.0 0.0 5 ------- null}
- -t 1.1107856 -s 2 -d 0 -p ack -e 40 -c 0 -i 25 -a 0 -x {3.0 0.0 5 ------- null}
h -t 1.1107856 -s 2 -d 0 -p ack -e 40 -c 0 -i 25 -a 0 -x {3.0 0.0 -1 ------- null}
r -t 1.1109088 -s 3 -d 2 -p ack -e 40 -c 0 -i 26 -a 0 -x {3.0 0.0 6 ------- null}
+ -t 1.1109088 -s 2 -d 0 -p ack -e 40 -c 0 -i 26 -a 0 -x {3.0 0.0 6 ------- null}
- -t 1.1109088 -s 2 -d 0 -p ack -e 40 -c 0 -i 26 -a 0 -x {3.0 0.0 6 ------- null}
h -t 1.1109088 -s 2 -d 0 -p ack -e 40 -c 0 -i 26 -a 0 -x {3.0 0.0 -1 ------- null}
+ -t 1.112 -s 1 -d 2 -p cbr -e 1000 -c 0 -i 28 -a 0 -x {1.0 3.1 14 ------- null}
- -t 1.112 -s 1 -d 2 -p cbr -e 1000 -c 0 -i 28 -a 0 -x {1.0 3.1 14 ------- null}
h -t 1.112 -s 1 -d 2 -p cbr -e 1000 -c 0 -i 28 -a 0 -x {1.0 3.1 -1 ------- null}
r -t 1.11408 -s 1 -d 2 -p cbr -e 1000 -c 0 -i 27 -a 0 -x {1.0 3.1 13 ------- null}
+ -t 1.11408 -s 2 -d 3 -p cbr -e 1000 -c 0 -i 27 -a 0 -x {1.0 3.1 13 ------- null}
- -t 1.11408 -s 2 -d 3 -p cbr -e 1000 -c 0 -i 27 -a 0 -x {1.0 3.1 13 ------- null}
h -t 1.11408 -s 2 -d 3 -p cbr -e 1000 -c 0 -i 27 -a 0 -x {1.0 3.1 -1 ------- null}
r -t 1.11616 -s 2 -d 3 -p cbr -e 1000 -c 0 -i 22 -a 0 -x {1.0 3.1 12 ------- null}
+ -t 1.12 -s 1 -d 2 -p cbr -e 1000 -c 0 -i 29 -a 0 -x {1.0 3.1 15 ------- null}
- -t 1.12 -s 1 -d 2 -p cbr -e 1000 -c 0 -i 29 -a 0 -x {1.0 3.1 15 ------- null}
h -t 1.12 -s 1 -d 2 -p cbr -e 1000 -c 0 -i 29 -a 0 -x {1.0 3.1 -1 ------- null}
r -t 1.1205424 -s 2 -d 0 -p ack -e 40 -c 0 -i 23 -a 0 -x {3.0 0.0 3 ------- null}
+ -t 1.1205424 -s 0 -d 2 -p tcp -e 1540 -c 0 -i 30 -a 0 -x {0.0 3.0 7 ------- null}
- -t 1.1205424 -s 0 -d 2 -p tcp -e 1540 -c 0 -i 30 -a 0 -x {0.0 3.0 7 ------- null}
h -t 1.1205424 -s 0 -d 2 -p tcp -e 1540 -c 0 -i 30 -a 0 -x {0.0 3.0 -1 ------- null}
+ -t 1.1205424 -s 0 -d 2 -p tcp -e 1540 -c 0 -i 31 -a 0 -x {0.0 3.0 8 ------- null}
r -t 1.1206656 -s 2 -d 0 -p ack -e 40 -c 0 -i 24 -a 0 -x {3.0 0.0 4 ------- null}
+ -t 1.1206656 -s 0 -d 2 -p tcp -e 1540 -c 0 -i 32 -a 0 -x {0.0 3.0 9 ------- null}
+ -t 1.1206656 -s 0 -d 2 -p tcp -e 1540 -c 0 -i 33 -a 0 -x {0.0 3.0 10 ------- null}
- -t 1.1206656 -s 0 -d 2 -p tcp -e 1540 -c 0 -i 31 -a 0 -x {0.0 3.0 8 ------- null}
h -t 1.1206656 -s 0 -d 2 -p tcp -e 1540 -c 0 -i 31 -a 0 -x {0.0 3.0 -1 ------- null}
r -t 1.1207888 -s 2 -d 0 -p ack -e 40 -c 0 -i 25 -a 0 -x {3.0 0.0 5 ------- null}
+ -t 1.1207888 -s 0 -d 2 -p tcp -e 1540 -c 0 -i 34 -a 0 -x {0.0 3.0 11 ------- null}
+ -t 1.1207888 -s 0 -d 2 -p tcp -e 1540 -c 0 -i 35 -a 0 -x {0.0 3.0 12 ------- null}
- -t 1.1207888 -s 0 -d 2 -p tcp -e 1540 -c 0 -i 32 -a 0 -x {0.0 3.0 9 ------- null}
h -t 1.1207888 -s 0 -d 2 -p tcp -e 1540 -c 0 -i 32 -a 0 -x {0.0 3.0 -1 ------- null}
r -t 1.120912 -s 2 -d 0 -p ack -e 40 -c 0 -i 26 -a 0 -x {3.0 0.0 6 ------- null}
+ -t 1.120912 -s 0 -d 2 -p tcp -e 1540 -c 0 -i 36 -a 0 -x {0.0 3.0 13 ------- null}
+ -t 1.120912 -s 0 -d 2 -p tcp -e 1540 -c 0 -i 37 -a 0 -x {0.0 3.0 14 ------- null}
- -t 1.120912 -s 0 -d 2 -p tcp -e 1540 -c 0 -i 33 -a 0 -x {0.0 3.0 10 ------- null}
h -t 1.120912 -s 0 -d 2 -p tcp -e 1540 -c 0 -i 33 -a 0 -x {0.0 3.0 -1 ------- null}
- -t 1.1210352 -s 0 -d 2 -p tcp -e 1540 -c 0 -i 34 -a 0 -x {0.0 3.0 11 ------- null}
h -t 1.1210352 -s 0 -d 2 -p tcp -e 1540 -c 0 -i 34 -a 0 -x {0.0 3.0 -1 ------- null}
- -t 1.1211584 -s 0 -d 2 -p tcp -e 1540 -c 0 -i 35 -a 0 -x {0.0 3.0 12 ------- null}
h -t 1.1211584 -s 0 -d 2 -p tcp -e 1540 -c 0 -i 35 -a 0 -x {0.0 3.0 -1 ------- null}
- -t 1.1212816 -s 0 -d 2 -p tcp -e 1540 -c 0 -i 36 -a 0 -x {0.0 3.0 13 ------- null}
h -t 1.1212816 -s 0 -d 2 -p tcp -e 1540 -c 0 -i 36 -a 0 -x {0.0 3.0 -1 ------- null}
- -t 1.1214048 -s 0 -d 2 -p tcp -e 1540 -c 0 -i 37 -a 0 -x {0.0 3.0 14 ------- null}
h -t 1.1214048 -s 0 -d 2 -p tcp -e 1540 -c 0 -i 37 -a 0 -x {0.0 3.0 -1 ------- null}
r -t 1.12208 -s 1 -d 2 -p cbr -e 1000 -c 0 -i 28 -a 0 -x {1.0 3.1 14 ------- null}
+ -t 1.12208 -s 2 -d 3 -p cbr -e 1000 -c 0 -i 28 -a 0 -x {1.0 3.1 14 ------- null}
- -t 1.12208 -s 2 -d 3 -p cbr -e 1000 -c 0 -i 28 -a 0 -x {1.0 3.1 14 ------- null}
h -t 1.12208 -s 2 -d 3 -p cbr -e 1000 -c 0 -i 28 -a 0 -x {1.0 3.1 -1 ------- null}
r -t 1.12416 -s 2 -d 3 -p cbr -e 1000 -c 0 -i 27 -a 0 -x {1.0 3.1 13 ------- null}
+ -t 1.128 -s 1 -d 2 -p cbr -e 1000 -c 0 -i 38 -a 0 -x {1.0 3.1 16 ------- null}
- -t 1.128 -s 1 -d 2 -p cbr -e 1000 -c 0 -i 38 -a 0 -x {1.0 3.1 16 ------- null}
h -t 1.128 -s 1 -d 2 -p cbr -e 1000 -c 0 -i 38 -a 0 -x {1.0 3.1 -1 ------- null}
r -t 1.13008 -s 1 -d 2 -p cbr -e 1000 -c 0 -i 29 -a 0 -x {1.0 3.1 15 ------- null}
+ -t 1.13008 -s 2 -d 3 -p cbr -e 1000 -c 0 -i 29 -a 0 -x {1.0 3.1 15 ------- null}
- -t 1.13008 -s 2 -d 3 -p cbr -e 1000 -c 0 -i 29 -a 0 -x {1.0 3.1 15 ------- null}
h -t 1.13008 -s 2 -d 3 -p cbr -e 1000 -c 0 -i 29 -a 0 -x {1.0 3.1 -1 ------- null}
r -t 1.1306656 -s 0 -d 2 -p tcp -e 1540 -c 0 -i 30 -a 0 -x {0.0 3.0 7 ------- null}
+ -t 1.1306656 -s 2 -d 3 -p tcp -e 1540 -c 0 -i 30 -a 0 -x {0.0 3.0 7 ------- null}
- -t 1.1306656 -s 2 -d 3 -p tcp -e 1540 -c 0 -i 30 -a 0 -x {0.0 3.0 7 ------- null}
h -t 1.1306656 -s 2 -d 3 -p tcp -e 1540 -c 0 -i 30 -a 0 -x {0.0 3.0 -1 ------- null}
r -t 1.1307888 -s 0 -d 2 -p tcp -e 1540 -c 0 -i 31 -a 0 -x {0.0 3.0 8 ------- null}
+ -t 1.1307888 -s 2 -d 3 -p tcp -e 1540 -c 0 -i 31 -a 0 -x {0.0 3.0 8 ------- null}
- -t 1.1307888 -s 2 -d 3 -p tcp -e 1540 -c 0 -i 31 -a 0 -x {0.0 3.0 8 ------- null}
h -t 1.1307888 -s 2 -d 3 -p tcp -e 1540 -c 0 -i 31 -a 0 -x {0.0 3.0 -1 ------- null}
r -t 1.130912 -s 0 -d 2 -p tcp -e 1540 -c 0 -i 32 -a 0 -x {0.0 3.0 9 ------- null}
+ -t 1.130912 -s 2 -d 3 -p tcp -e 1540 -c 0 -i 32 -a 0 -x {0.0 3.0 9 ------- null}
- -t 1.130912 -s 2 -d 3 -p tcp -e 1540 -c 0 -i 32 -a 0 -x {0.0 3.0 9 ------- null}
h -t 1.130912 -s 2 -d 3 -p tcp -e 1540 -c 0 -i 32 -a 0 -x {0.0 3.0 -1 ------- null}
r -t 1.1310352 -s 0 -d 2 -p tcp -e 1540 -c 0 -i 33 -a 0 -x {0.0 3.0 10 ------- null}
+ -t 1.1310352 -s 2 -d 3 -p tcp -e 1540 -c 0 -i 33 -a 0 -x {0.0 3.0 10 ------- null}
- -t 1.1310352 -s 2 -d 3 -p tcp -e 1540 -c 0 -i 33 -a 0 -x {0.0 3.0 10 ------- null}
h -t 1.1310352 -s 2 -d 3 -p tcp -e 1540 -c 0 -i 33 -a 0 -x {0.0 3.0 -1 ------- null}
r -t 1.1311584 -s 0 -d 2 -p tcp -e 1540 -c 0 -i 34 -a 0 -x {0.0 3.0 11 ------- null}
+ -t 1.1311584 -s 2 -d 3 -p tcp -e 1540 -c 0 -i 34 -a 0 -x {0.0 3.0 11 ------- null}
- -t 1.1311584 -s 2 -d 3 -p tcp -e 1540 -c 0 -i 34 -a 0 -x {0.0 3.0 11 ------- null}
h -t 1.1311584 -s 2 -d 3 -p tcp -e 1540 -c 0 -i 34 -a 0 -x {0.0 3.0 -1 ------- null}
r -t 1.1312816 -s 0 -d 2 -p tcp -e 1540 -c 0 -i 35 -a 0 -x {0.0 3.0 12 ------- null}
+ -t 1.1312816 -s 2 -d 3 -p tcp -e 1540 -c 0 -i 35 -a 0 -x {0.0 3.0 12 ------- null}
- -t 1.1312816 -s 2 -d 3 -p tcp -e 1540 -c 0 -i 35 -a 0 -x {0.0 3.0 12 ------- null}
h -t 1.1312816 -s 2 -d 3 -p tcp -e 1540 -c 0 -i 35 -a 0 -x {0.0 3.0 -1 ------- null}
r -t 1.1314048 -s 0 -d 2 -p tcp -e 1540 -c 0 -i 36 -a 0 -x {0.0 3.0 13 ------- null}
+ -t 1.1314048 -s 2 -d 3 -p tcp -e 1540 -c 0 -i 36 -a 0 -x {0.0 3.0 13 ------- null}
- -t 1.1314048 -s 2 -d 3 -p tcp -e 1540 -c 0 -i 36 -a 0 -x {0.0 3.0 13 ------- null}
h -t 1.1314048 -s 2 -d 3 -p tcp -e 1540 -c 0 -i 36 -a 0 -x {0.0 3.0 -1 ------- null}
r -t 1.131528 -s 0 -d 2 -p tcp -e 1540 -c 0 -i 37 -a 0 -x {0.0 3.0 14 ------- null}
+ -t 1.131528 -s 2 -d 3 -p tcp -e 1540 -c 0 -i 37 -a 0 -x {0.0 3.0 14 ------- null}
- -t 1.131528 -s 2 -d 3 -p tcp -e 1540 -c 0 -i 37 -a 0 -x {0.0 3.0 14 ------- null}
h -t 1.131528 -s 2 -d 3 -p tcp -e 1540 -c 0 -i 37 -a 0 -x {0.0 3.0 -1 ------- null}
r -t 1.13216 -s 2 -d 3 -p cbr -e 1000 -c 0 -i 28 -a 0 -x {1.0 3.1 14 ------- null}
+ -t 1.136 -s 1 -d 2 -p cbr -e 1000 -c 0 -i 39 -a 0 -x {1.0 3.1 17 ------- null}
- -t 1.136 -s 1 -d 2 -p cbr -e 1000 -c 0 -i 39 -a 0 -x {1.0 3.1 17 ------- null}
h -t 1.136 -s 1 -d 2 -p cbr -e 1000 -c 0 -i 39 -a 0 -x {1.0 3.1 -1 ------- null}
r -t 1.13808 -s 1 -d 2 -p cbr -e 1000 -c 0 -i 38 -a 0 -x {1.0 3.1 16 ------- null}
+ -t 1.13808 -s 2 -d 3 -p cbr -e 1000 -c 0 -i 38 -a 0 -x {1.0 3.1 16 ------- null}
- -t 1.13808 -s 2 -d 3 -p cbr -e 1000 -c 0 -i 38 -a 0 -x {1.0 3.1 16 ------- null}
h -t 1.13808 -s 2 -d 3 -p cbr -e 1000 -c 0 -i 38 -a 0 -x {1.0 3.1 -1 ------- null}
r -t 1.14016 -s 2 -d 3 -p cbr -e 1000 -c 0 -i 29 -a 0 -x {1.0 3.1 15 ------- null}
r -t 1.1407888 -s 2 -d 3 -p tcp -e 1540 -c 0 -i 30 -a 0 -x {0.0 3.0 7 ------- null}
+ -t 1.1407888 -s 3 -d 2 -p ack -e 40 -c 0 -i 40 -a 0 -x {3.0 0.0 7 ------- null}
- -t 1.1407888 -s 3 -d 2 -p ack -e 40 -c 0 -i 40 -a 0 -x {3.0 0.0 7 ------- null}
h -t 1.1407888 -s 3 -d 2 -p ack -e 40 -c 0 -i 40 -a 0 -x {3.0 0.0 -1 ------- null}
r -t 1.140912 -s 2 -d 3 -p tcp -e 1540 -c 0 -i 31 -a 0 -x {0.0 3.0 8 ------- null}
+ -t 1.140912 -s 3 -d 2 -p ack -e 40 -c 0 -i 41 -a 0 -x {3.0 0.0 8 ------- null}
- -t 1.140912 -s 3 -d 2 -p ack -e 40 -c 0 -i 41 -a 0 -x {3.0 0.0 8 ------- null}
h -t 1.140912 -s 3 -d 2 -p ack -e 40 -c 0 -i 41 -a 0 -x {3.0 0.0 -1 ------- null}
r -t 1.1410352 -s 2 -d 3 -p tcp -e 1540 -c 0 -i 32 -a 0 -x {0.0 3.0 9 ------- null}
+ -t 1.1410352 -s 3 -d 2 -p ack -e 40 -c 0 -i 42 -a 0 -x {3.0 0.0 9 ------- null}
- -t 1.1410352 -s 3 -d 2 -p ack -e 40 -c 0 -i 42 -a 0 -x {3.0 0.0 9 ------- null}
h -t 1.1410352 -s 3 -d 2 -p ack -e 40 -c 0 -i 42 -a 0 -x {3.0 0.0 -1 ------- null}
r -t 1.1411584 -s 2 -d 3 -p tcp -e 1540 -c 0 -i 33 -a 0 -x {0.0 3.0 10 ------- null}
+ -t 1.1411584 -s 3 -d 2 -p ack -e 40 -c 0 -i 43 -a 0 -x {3.0 0.0 10 ------- null}
- -t 1.1411584 -s 3 -d 2 -p ack -e 40 -c 0 -i 43 -a 0 -x {3.0 0.0 10 ------- null}
h -t 1.1411584 -s 3 -d 2 -p ack -e 40 -c 0 -i 43 -a 0 -x {3.0 0.0 -1 ------- null}
r -t 1.1412816 -s 2 -d 3 -p tcp -e 1540 -c 0 -i 34 -a 0 -x {0.0 3.0 11 ------- null}
+ -t 1.1412816 -s 3 -d 2 -p ack -e 40 -c 0 -i 44 -a 0 -x {3.0 0.0 11 ------- null}
- -t 1.1412816 -s 3 -d 2 -p ack -e 40 -c 0 -i 44 -a 0 -x {3.0 0.0 11 ------- null}
h -t 1.1412816 -s 3 -d 2 -p ack -e 40 -c 0 -i 44 -a 0 -x {3.0 0.0 -1 ------- null}
r -t 1.1414048 -s 2 -d 3 -p tcp -e 1540 -c 0 -i 35 -a 0 -x {0.0 3.0 12 ------- null}
+ -t 1.1414048 -s 3 -d 2 -p ack -e 40 -c 0 -i 45 -a 0 -x {3.0 0.0 12 ------- null}
- -t 1.1414048 -s 3 -d 2 -p ack -e 40 -c 0 -i 45 -a 0 -x {3.0 0.0 12 ------- null}
h -t 1.1414048 -s 3 -d 2 -p ack -e 40 -c 0 -i 45 -a 0 -x {3.0 0.0 -1 ------- null}
r -t 1.141528 -s 2 -d 3 -p tcp -e 1540 -c 0 -i 36 -a 0 -x {0.0 3.0 13 ------- null}
+ -t 1.141528 -s 3 -d 2 -p ack -e 40 -c 0 -i 46 -a 0 -x {3.0 0.0 13 ------- null}
- -t 1.141528 -s 3 -d 2 -p ack -e 40 -c 0 -i 46 -a 0 -x {3.0 0.0 13 ------- null}
h -t 1.141528 -s 3 -d 2 -p ack -e 40 -c 0 -i 46 -a 0 -x {3.0 0.0 -1 ------- null}
r -t 1.1416512 -s 2 -d 3 -p tcp -e 1540 -c 0 -i 37 -a 0 -x {0.0 3.0 14 ------- null}
+ -t 1.1416512 -s 3 -d 2 -p ack -e 40 -c 0 -i 47 -a 0 -x {3.0 0.0 14 ------- null}
- -t 1.1416512 -s 3 -d 2 -p ack -e 40 -c 0 -i 47 -a 0 -x {3.0 0.0 14 ------- null}
h -t 1.1416512 -s 3 -d 2 -p ack -e 40 -c 0 -i 47 -a 0 -x {3.0 0.0 -1 ------- null}
+ -t 1.144 -s 1 -d 2 -p cbr -e 1000 -c 0 -i 48 -a 0 -x {1.0 3.1 18 ------- null}
- -t 1.144 -s 1 -d 2 -p cbr -e 1000 -c 0 -i 48 -a 0 -x {1.0 3.1 18 ------- null}
h -t 1.144 -s 1 -d 2 -p cbr -e 1000 -c 0 -i 48 -a 0 -x {1.0 3.1 -1 ------- null}
r -t 1.14608 -s 1 -d 2 -p cbr -e 1000 -c 0 -i 39 -a 0 -x {1.0 3.1 17 ------- null}
+ -t 1.14608 -s 2 -d 3 -p cbr -e 1000 -c 0 -i 39 -a 0 -x {1.0 3.1 17 ------- null}
- -t 1.14608 -s 2 -d 3 -p cbr -e 1000 -c 0 -i 39 -a 0 -x {1.0 3.1 17 ------- null}
h -t 1.14608 -s 2 -d 3 -p cbr -e 1000 -c 0 -i 39 -a 0 -x {1.0 3.1 -1 ------- null}
r -t 1.14816 -s 2 -d 3 -p cbr -e 1000 -c 0 -i 38 -a 0 -x {1.0 3.1 16 ------- null}
r -t 1.150792 -s 3 -d 2 -p ack -e 40 -c 0 -i 40 -a 0 -x {3.0 0.0 7 ------- null}
+ -t 1.150792 -s 2 -d 0 -p ack -e 40 -c 0 -i 40 -a 0 -x {3.0 0.0 7 ------- null}
- -t 1.150792 -s 2 -d 0 -p ack -e 40 -c 0 -i 40 -a 0 -x {3.0 0.0 7 ------- null}
h -t 1.150792 -s 2 -d 0 -p ack -e 40 -c 0 -i 40 -a 0 -x {3.0 0.0 -1 ------- null}
r -t 1.1509152 -s 3 -d 2 -p ack -e 40 -c 0 -i 41 -a 0 -x {3.0 0.0 8 ------- null}
+ -t 1.1509152 -s 2 -d 0 -p ack -e 40 -c 0 -i 41 -a 0 -x {3.0 0.0 8 ------- null}
- -t 1.1509152 -s 2 -d 0 -p ack -e 40 -c 0 -i 41 -a 0 -x {3.0 0.0 8 ------- null}
h -t 1.1509152 -s 2 -d 0 -p ack -e 40 -c 0 -i 41 -a 0 -x {3.0 0.0 -1 ------- null}
r -t 1.1510384 -s 3 -d 2 -p ack -e 40 -c 0 -i 42 -a 0 -x {3.0 0.0 9 ------- null}
+ -t 1.1510384 -s 2 -d 0 -p ack -e 40 -c 0 -i 42 -a 0 -x {3.0 0.0 9 ------- null}
- -t 1.1510384 -s 2 -d 0 -p ack -e 40 -c 0 -i 42 -a 0 -x {3.0 0.0 9 ------- null}
h -t 1.1510384 -s 2 -d 0 -p ack -e 40 -c 0 -i 42 -a 0 -x {3.0 0.0 -1 ------- null}