n -t * -s 0  -x 419 -y 215 -Z 0 -z 20  -v circle -c black
n -t * -s 1  -x 700 -y 212 -Z 0 -z 20  -v circle -c black
n -t * -s 2  -x 994 -y 209 -Z 0 -z 20  -v circle -c black
V -t * -v 1.0a5 -a 0
W -t * -x 1653 -y 432
A -t * -n 1 -p 0 -o 0x7fffffff -c 30 -a 1
A -t * -h 1 -m 1073741823 -s 0
n -t 1.000000 -s 1 -x 700.000000 -y 212.000000 -U -134.973246 -V 37.178259 -T 2.474564
n -t 1.000000 -s 2 -x 994.000000 -y 209.000000 -U -139.831628 -V -6.864105 -T 5.098989
+ -t 1.000000000 -s 0 -d -1 -p tcp -e 40 -c 2 -a 0 -i 0 -k AGT 
- -t 1.000000000 -s 0 -d -1 -p tcp -e 40 -c 2 -a 0 -i 0 -k AGT
h -t 1.000000000 -s 0 -d -1 -p tcp -e 40 -c 2 -a 0 -i 0 -k AGT
+ -t 1.000000000 -s 0 -d -1 -p AODV -e 48 -c 2 -a 0 -i 0 -k RTR 
- -t 1.000000000 -s 0 -d -1 -p AODV -e 48 -c 2 -a 0 -i 0 -k RTR
h -t 1.000000000 -s 0 -d -1 -p AODV -e 48 -c 2 -a 0 -i 0 -k RTR
+ -t 1.000115000 -s 0 -d -1 -p AODV -e 106 -c 2 -a 0 -i 0 -k MAC 
- -t 1.000115000 -s 0 -d -1 -p AODV -e 106 -c 2 -a 0 -i 0 -k MAC
h -t 1.000115000 -s 0 -d -1 -p AODV -e 106 -c 2 -a 0 -i 0 -k MAC
+ -t 3.000000000 -s 0 -d -1 -p AODV -e 48 -c 2 -a 0 -i 0 -k RTR 
- -t 3.000000000 -s 0 -d -1 -p AODV -e 48 -c 2 -a 0 -i 0 -k RTR
h -t 3.000000000 -s 0 -d -1 -p AODV -e 48 -c 2 -a 0 -i 0 -k RTR
+ -t 3.000375000 -s 0 -d -1 -p AODV -e 106 -c 2 -a 0 -i 0 -k MAC 
- -t 3.000375000 -s 0 -d -1 -p AODV -e 106 -c 2 -a 0 -i 0 -k MAC
h -t 3.000375000 -s 0 -d -1 -p AODV -e 106 -c 2 -a 0 -i 0 -k MAC
r -t 3.001223241 -s 1 -d -1 -p AODV -e 48 -c 2 -a 0 -i 0 -k MAC
r -t 3.001248241 -s 1 -d -1 -p AODV -e 48 -c 2 -a 0 -i 0 -k RTR
+ -t 3.009239795 -s 1 -d -1 -p AODV -e 48 -c 2 -a 0 -i 0 -k RTR 
- -t 3.009239795 -s 1 -d -1 -p AODV -e 48 -c 2 -a 0 -i 0 -k RTR
h -t 3.009239795 -s 1 -d -1 -p AODV -e 48 -c 2 -a 0 -i 0 -k RTR
+ -t 3.009474795 -s 1 -d -1 -p AODV -e 106 -c 2 -a 0 -i 0 -k MAC 
- -t 3.009474795 -s 1 -d -1 -p AODV -e 106 -c 2 -a 0 -i 0 -k MAC
h -t 3.009474795 -s 1 -d -1 -p AODV -e 106 -c 2 -a 0 -i 0 -k MAC
r -t 3.010323036 -s 0 -d -1 -p AODV -e 48 -c 2 -a 0 -i 0 -k MAC
r -t 3.010348036 -s 0 -d -1 -p AODV -e 48 -c 2 -a 0 -i 0 -k RTR
+ -t 4.000000000 -s 0 -d -1 -p tcp -e 40 -c 2 -a 0 -i 1 -k AGT 
- -t 4.000000000 -s 0 -d -1 -p tcp -e 40 -c 2 -a 0 -i 1 -k AGT
h -t 4.000000000 -s 0 -d -1 -p tcp -e 40 -c 2 -a 0 -i 1 -k AGT
+ -t 7.000000000 -s 0 -d -1 -p AODV -e 48 -c 2 -a 0 -i 0 -k RTR 
- -t 7.000000000 -s 0 -d -1 -p AODV -e 48 -c 2 -a 0 -i 0 -k RTR
h -t 7.000000000 -s 0 -d -1 -p AODV -e 48 -c 2 -a 0 -i 0 -k RTR
+ -t 7.000315000 -s 0 -d -1 -p AODV -e 106 -c 2 -a 0 -i 0 -k MAC 
- -t 7.000315000 -s 0 -d -1 -p AODV -e 106 -c 2 -a 0 -i 0 -k MAC
h -t 7.000315000 -s 0 -d -1 -p AODV -e 106 -c 2 -a 0 -i 0 -k MAC
r -t 7.001163345 -s 1 -d -1 -p AODV -e 48 -c 2 -a 0 -i 0 -k MAC
r -t 7.001163480 -s 2 -d -1 -p AODV -e 48 -c 2 -a 0 -i 0 -k MAC
r -t 7.001188345 -s 1 -d -1 -p AODV -e 48 -c 2 -a 0 -i 0 -k RTR
r -t 7.001188480 -s 2 -d -1 -p AODV -e 48 -c 2 -a 0 -i 0 -k RTR
+ -t 7.001188480 -s 2 -d 0 -p AODV -e 44 -c 2 -a 0 -i 0 -k RTR 
- -t 7.001188480 -s 2 -d 0 -p AODV -e 44 -c 2 -a 0 -i 0 -k RTR
h -t 7.001188480 -s 2 -d 0 -p AODV -e 44 -c 2 -a 0 -i 0 -k RTR
+ -t 7.001483480 -s 2 -d -1 -p ARP -e 86 -c 2 -a 0 -i 0 -k MAC 
- -t 7.001483480 -s 2 -d -1 -p ARP -e 86 -c 2 -a 0 -i 0 -k MAC
h -t 7.001483480 -s 2 -d -1 -p ARP -e 86 -c 2 -a 0 -i 0 -k MAC
r -t 7.002171960 -s 0 -d -1 -p ARP -e 28 -c 2 -a 0 -i 0 -k MAC
r -t 7.002171998 -s 1 -d -1 -p ARP -e 28 -c 2 -a 0 -i 0 -k MAC
+ -t 7.002321960 -s 0 -d -1 -p RTS -e 44 -c 2 -a 0 -i 0 -k MAC 
- -t 7.002321960 -s 0 -d -1 -p RTS -e 44 -c 2 -a 0 -i 0 -k MAC
h -t 7.002321960 -s 0 -d -1 -p RTS -e 44 -c 2 -a 0 -i 0 -k MAC
r -t 7.002674440 -s 2 -d -1 -p RTS -e 44 -c 2 -a 0 -i 0 -k MAC
+ -t 7.002684440 -s 2 -d -1 -p CTS -e 38 -c 2 -a 0 -i 0 -k MAC 
- -t 7.002684440 -s 2 -d -1 -p CTS -e 38 -c 2 -a 0 -i 0 -k MAC
h -t 7.002684440 -s 2 -d -1 -p CTS -e 38 -c 2 -a 0 -i 0 -k MAC
r -t 7.002988919 -s 0 -d -1 -p CTS -e 38 -c 2 -a 0 -i 0 -k MAC
+ -t 7.002998919 -s 0 -d -1 -p ARP -e 86 -c 2 -a 0 -i 0 -k MAC 
- -t 7.002998919 -s 0 -d -1 -p ARP -e 86 -c 2 -a 0 -i 0 -k MAC
h -t 7.002998919 -s 0 -d -1 -p ARP -e 86 -c 2 -a 0 -i 0 -k MAC
r -t 7.003687399 -s 2 -d -1 -p ARP -e 28 -c 2 -a 0 -i 0 -k MAC
+ -t 7.003697399 -s 2 -d -1 -p ACK -e 38 -c 2 -a 0 -i 0 -k MAC 
- -t 7.003697399 -s 2 -d -1 -p ACK -e 38 -c 2 -a 0 -i 0 -k MAC
h -t 7.003697399 -s 2 -d -1 -p ACK -e 38 -c 2 -a 0 -i 0 -k MAC
r -t 7.004001879 -s 0 -d -1 -p ACK -e 38 -c 2 -a 0 -i 0 -k MAC
+ -t 7.004279136 -s 1 -d -1 -p AODV -e 48 -c 2 -a 0 -i 0 -k RTR 
- -t 7.004279136 -s 1 -d -1 -p AODV -e 48 -c 2 -a 0 -i 0 -k RTR
h -t 7.004279136 -s 1 -d -1 -p AODV -e 48 -c 2 -a 0 -i 0 -k RTR
+ -t 7.004591399 -s 2 -d -1 -p RTS -e 44 -c 2 -a 0 -i 0 -k MAC 
- -t 7.004591399 -s 2 -d -1 -p RTS -e 44 -c 2 -a 0 -i 0 -k MAC
h -t 7.004591399 -s 2 -d -1 -p RTS -e 44 -c 2 -a 0 -i 0 -k MAC
r -t 7.004943879 -s 0 -d -1 -p RTS -e 44 -c 2 -a 0 -i 0 -k MAC
+ -t 7.004953879 -s 0 -d -1 -p CTS -e 38 -c 2 -a 0 -i 0 -k MAC 
- -t 7.004953879 -s 0 -d -1 -p CTS -e 38 -c 2 -a 0 -i 0 -k MAC
h -t 7.004953879 -s 0 -d -1 -p CTS -e 38 -c 2 -a 0 -i 0 -k MAC
r -t 7.005258359 -s 2 -d -1 -p CTS -e 38 -c 2 -a 0 -i 0 -k MAC
+ -t 7.005268359 -s 2 -d 0 -p AODV -e 102 -c 2 -a 0 -i 0 -k MAC 
- -t 7.005268359 -s 2 -d 0 -p AODV -e 102 -c 2 -a 0 -i 0 -k MAC
h -t 7.005268359 -s 2 -d 0 -p AODV -e 102 -c 2 -a 0 -i 0 -k MAC
r -t 7.006084839 -s 0 -d 0 -p AODV -e 44 -c 2 -a 0 -i 0 -k MAC
+ -t 7.006094839 -s 0 -d -1 -p ACK -e 38 -c 2 -a 0 -i 0 -k MAC 
- -t 7.006094839 -s 0 -d -1 -p ACK -e 38 -c 2 -a 0 -i 0 -k MAC
h -t 7.006094839 -s 0 -d -1 -p ACK -e 38 -c 2 -a 0 -i 0 -k MAC
+ -t 7.006109839 -s 0 -d 2 -p tcp -e 40 -c 2 -a 0 -i 0 -k RTR 
- -t 7.006109839 -s 0 -d 2 -p tcp -e 40 -c 2 -a 0 -i 0 -k RTR
h -t 7.006109839 -s 0 -d 2 -p tcp -e 40 -c 2 -a 0 -i 0 -k RTR
r -t 7.006399319 -s 2 -d -1 -p ACK -e 38 -c 2 -a 0 -i 0 -k MAC
+ -t 7.006589184 -s 1 -d -1 -p AODV -e 106 -c 2 -a 0 -i 0 -k MAC 
- -t 7.006589184 -s 1 -d -1 -p AODV -e 106 -c 2 -a 0 -i 0 -k MAC
h -t 7.006589184 -s 1 -d -1 -p AODV -e 106 -c 2 -a 0 -i 0 -k MAC
r -t 7.007437530 -s 0 -d -1 -p AODV -e 48 -c 2 -a 0 -i 0 -k MAC
r -t 7.007437702 -s 2 -d -1 -p AODV -e 48 -c 2 -a 0 -i 0 -k MAC
r -t 7.007462530 -s 0 -d -1 -p AODV -e 48 -c 2 -a 0 -i 0 -k RTR
r -t 7.007462702 -s 2 -d -1 -p AODV -e 48 -c 2 -a 0 -i 0 -k RTR
+ -t 7.007587530 -s 0 -d -1 -p RTS -e 44 -c 2 -a 0 -i 0 -k MAC 
- -t 7.007587530 -s 0 -d -1 -p RTS -e 44 -c 2 -a 0 -i 0 -k MAC
h -t 7.007587530 -s 0 -d -1 -p RTS -e 44 -c 2 -a 0 -i 0 -k MAC
r -t 7.007940009 -s 2 -d -1 -p RTS -e 44 -c 2 -a 0 -i 0 -k MAC
+ -t 7.007950009 -s 2 -d -1 -p CTS -e 38 -c 2 -a 0 -i 0 -k MAC 
- -t 7.007950009 -s 2 -d -1 -p CTS -e 38 -c 2 -a 0 -i 0 -k MAC
h -t 7.007950009 -s 2 -d -1 -p CTS -e 38 -c 2 -a 0 -i 0 -k MAC
r -t 7.008254489 -s 0 -d -1 -p CTS -e 38 -c 2 -a 0 -i 0 -k MAC
+ -t 7.008264489 -s 0 -d 2 -p tcp -e 98 -c 2 -a 0 -i 0 -k MAC 
- -t 7.008264489 -s 0 -d 2 -p tcp -e 98 -c 2 -a 0 -i 0 -k MAC
h -t 7.008264489 -s 0 -d 2 -p tcp -e 98 -c 2 -a 0 -i 0 -k MAC
r -t 7.009048969 -s 2 -d 2 -p tcp -e 40 -c 2 -a 0 -i 0 -k MAC
+ -t 7.009058969 -s 2 -d -1 -p ACK -e 38 -c 2 -a 0 -i 0 -k MAC 
- -t 7.009058969 -s 2 -d -1 -p ACK -e 38 -c 2 -a 0 -i 0 -k MAC
h -t 7.009058969 -s 2 -d -1 -p ACK -e 38 -c 2 -a 0 -i 0 -k MAC
r -t 7.009073969 -s 2 -d 2 -p tcp -e 40 -c 2 -a 0 -i 0 -k AGT
+ -t 7.009073969 -s 2 -d -1 -p ack -e 40 -c 2 -a 0 -i 2 -k AGT 
- -t 7.009073969 -s 2 -d -1 -p ack -e 40 -c 2 -a 0 -i 2 -k AGT
h -t 7.009073969 -s 2 -d -1 -p ack -e 40 -c 2 -a 0 -i 2 -k AGT
+ -t 7.009073969 -s 2 -d 0 -p ack -e 40 -c 2 -a 0 -i 2 -k RTR 
- -t 7.009073969 -s 2 -d 0 -p ack -e 40 -c 2 -a 0 -i 2 -k RTR
h -t 7.009073969 -s 2 -d 0 -p ack -e 40 -c 2 -a 0 -i 2 -k RTR
r -t 7.009363449 -s 0 -d -1 -p ACK -e 38 -c 2 -a 0 -i 0 -k MAC
+ -t 7.009752969 -s 2 -d -1 -p RTS -e 44 -c 2 -a 0 -i 0 -k MAC 
- -t 7.009752969 -s 2 -d -1 -p RTS -e 44 -c 2 -a 0 -i 0 -k MAC
h -t 7.009752969 -s 2 -d -1 -p RTS -e 44 -c 2 -a 0 -i 0 -k MAC
r -t 7.010105449 -s 0 -d -1 -p RTS -e 44 -c 2 -a 0 -i 0 -k MAC
+ -t 7.010115449 -s 0 -d -1 -p CTS -e 38 -c 2 -a 0 -i 0 -k MAC 
- -t 7.010115449 -s 0 -d -1 -p CTS -e 38 -c 2 -a 0 -i 0 -k MAC
h -t 7.010115449 -s 0 -d -1 -p CTS -e 38 -c 2 -a 0 -i 0 -k MAC
r -t 7.010419929 -s 2 -d -1 -p CTS -e 38 -c 2 -a 0 -i 0 -k MAC
+ -t 7.010429929 -s 2 -d 0 -p ack -e 98 -c 2 -a 0 -i 2 -k MAC 
- -t 7.010429929 -s 2 -d 0 -p ack -e 98 -c 2 -a 0 -i 2 -k MAC
h -t 7.010429929 -s 2 -d 0 -p ack -e 98 -c 2 -a 0 -i 2 -k MAC
r -t 7.011214409 -s 0 -d 0 -p ack -e 40 -c 2 -a 0 -i 2 -k MAC
+ -t 7.011224409 -s 0 -d -1 -p ACK -e 38 -c 2 -a 0 -i 0 -k MAC 
- -t 7.011224409 -s 0 -d -1 -p ACK -e 38 -c 2 -a 0 -i 0 -k MAC
h -t 7.011224409 -s 0 -d -1 -p ACK -e 38 -c 2 -a 0 -i 0 -k MAC
r -t 7.011239409 -s 0 -d 0 -p ack -e 40 -c 2 -a 0 -i 2 -k AGT
+ -t 7.011239409 -s 0 -d -1 -p tcp -e 1540 -c 2 -a 0 -i 3 -k AGT 
- -t 7.011239409 -s 0 -d -1 -p tcp -e 1540 -c 2 -a 0 -i 3 -k AGT
h -t 7.011239409 -s 0 -d -1 -p tcp -e 1540 -c 2 -a 0 -i 3 -k AGT
+ -t 7.011239409 -s 0 -d 2 -p tcp -e 1540 -c 2 -a 0 -i 3 -k RTR 
- -t 7.011239409 -s 0 -d 2 -p tcp -e 1540 -c 2 -a 0 -i 3 -k RTR
h -t 7.011239409 -s 0 -d 2 -p tcp -e 1540 -c 2 -a 0 -i 3 -k RTR
r -t 7.011528889 -s 2 -d -1 -p ACK -e 38 -c 2 -a 0 -i 0 -k MAC
+ -t 7.011778409 -s 0 -d -1 -p RTS -e 44 -c 2 -a 0 -i 0 -k MAC 
- -t 7.011778409 -s 0 -d -1 -p RTS -e 44 -c 2 -a 0 -i 0 -k MAC
h -t 7.011778409 -s 0 -d -1 -p RTS -e 44 -c 2 -a 0 -i 0 -k MAC
r -t 7.012130889 -s 2 -d -1 -p RTS -e 44 -c 2 -a 0 -i 0 -k MAC
+ -t 7.012140889 -s 2 -d -1 -p CTS -e 38 -c 2 -a 0 -i 0 -k MAC 
- -t 7.012140889 -s 2 -d -1 -p CTS -e 38 -c 2 -a 0 -i 0 -k MAC
h -t 7.012140889 -s 2 -d -1 -p CTS -e 38 -c 2 -a 0 -i 0 -k MAC
r -t 7.012445369 -s 0 -d -1 -p CTS -e 38 -c 2 -a 0 -i 0 -k MAC
+ -t 7.012455369 -s 0 -d 2 -p tcp -e 1598 -c 2 -a 0 -i 3 -k MAC 
- -t 7.012455369 -s 0 -d 2 -p tcp -e 1598 -c 2 -a 0 -i 3 -k MAC
h -t 7.012455369 -s 0 -d 2 -p tcp -e 1598 -c 2 -a 0 -i 3 -k MAC
+ -t 7.016109839 -s 0 -d 2 -p tcp -e 40 -c 2 -a 0 -i 1 -k RTR 
- -t 7.016109839 -s 0 -d 2 -p tcp -e 40 -c 2 -a 0 -i 1 -k RTR
h -t 7.016109839 -s 0 -d 2 -p tcp -e 40 -c 2 -a 0 -i 1 -k RTR
r -t 7.025239848 -s 2 -d 2 -p tcp -e 1540 -c 2 -a 0 -i 3 -k MAC
+ -t 7.025249848 -s 2 -d -1 -p ACK -e 38 -c 2 -a 0 -i 0 -k MAC 
- -t 7.025249848 -s 2 -d -1 -p ACK -e 38 -c 2 -a 0 -i 0 -k MAC
h -t 7.025249848 -s 2 -d -1 -p ACK -e 38 -c 2 -a 0 -i 0 -k MAC
r -t 7.025264848 -s 2 -d 2 -p tcp -e 1540 -c 2 -a 0 -i 3 -k AGT
+ -t 7.025264848 -s 2 -d -1 -p ack -e 40 -c 2 -a 0 -i 4 -k AGT 
- -t 7.025264848 -s 2 -d -1 -p ack -e 40 -c 2 -a 0 -i 4 -k AGT
h -t 7.025264848 -s 2 -d -1 -p ack -e 40 -c 2 -a 0 -i 4 -k AGT
+ -t 7.025264848 -s 2 -d 0 -p ack -e 40 -c 2 -a 0 -i 4 -k RTR 
- -t 7.025264848 -s 2 -d 0 -p ack -e 40 -c 2 -a 0 -i 4 -k RTR
h -t 7.025264848 -s 2 -d 0 -p ack -e 40 -c 2 -a 0 -i 4 -k RTR
r -t 7.025554328 -s 0 -d -1 -p ACK -e 38 -c 2 -a 0 -i 0 -k MAC
+ -t 7.025623848 -s 2 -d -1 -p RTS -e 44 -c 2 -a 0 -i 0 -k MAC 
- -t 7.025623848 -s 2 -d -1 -p RTS -e 44 -c 2 -a 0 -i 0 -k MAC
h -t 7.025623848 -s 2 -d -1 -p RTS -e 44 -c 2 -a 0 -i 0 -k MAC
+ -t 7.025624328 -s 0 -d -1 -p RTS -e 44 -c 2 -a 0 -i 0 -k MAC 
- -t 7.025624328 -s 0 -d -1 -p RTS -e 44 -c 2 -a 0 -i 0 -k MAC
h -t 7.025624328 -s 0 -d -1 -p RTS -e 44 -c 2 -a 0 -i 0 -k MAC
+ -t 7.026710808 -s 2 -d -1 -p RTS -e 44 -c 2 -a 0 -i 0 -k MAC 
- -t 7.026710808 -s 2 -d -1 -p RTS -e 44 -c 2 -a 0 -i 0 -k MAC
h -t 7.026710808 -s 2 -d -1 -p RTS -e 44 -c 2 -a 0 -i 0 -k MAC
r -t 7.027063288 -s 0 -d -1 -p RTS -e 44 -c 2 -a 0 -i 0 -k MAC
+ -t 7.027073288 -s 0 -d -1 -p CTS -e 38 -c 2 -a 0 -i 0 -k MAC 
- -t 7.027073288 -s 0 -d -1 -p CTS -e 38 -c 2 -a 0 -i 0 -k MAC
h -t 7.027073288 -s 0 -d -1 -p CTS -e 38 -c 2 -a 0 -i 0 -k MAC
r -t 7.027377768 -s 2 -d -1 -p CTS -e 38 -c 2 -a 0 -i 0 -k MAC
+ -t 7.027387768 -s 2 -d 0 -p ack -e 98 -c 2 -a 0 -i 4 -k MAC 
- -t 7.027387768 -s 2 -d 0 -p ack -e 98 -c 2 -a 0 -i 4 -k MAC
h -t 7.027387768 -s 2 -d 0 -p ack -e 98 -c 2 -a 0 -i 4 -k MAC
r -t 7.028172248 -s 0 -d 0 -p ack -e 40 -c 2 -a 0 -i 4 -k MAC
+ -t 7.028182248 -s 0 -d -1 -p ACK -e 38 -c 2 -a 0 -i 0 -k MAC 
- -t 7.028182248 -s 0 -d -1 -p ACK -e 38 -c 2 -a 0 -i 0 -k MAC
h -t 7.028182248 -s 0 -d -1 -p ACK -e 38 -c 2 -a 0 -i 0 -k MAC
r -t 7.028197248 -s 0 -d 0 -p ack -e 40 -c 2 -a 0 -i 4 -k AGT
+ -t 7.028197248 -s 0 -d -1 -p tcp -e 1540 -c 2 -a 0 -i 5 -k AGT 
- -t 7.028197248 -s 0 -d -1 -p tcp -e 1540 -c 2 -a 0 -i 5 -k AGT
h -t 7.028197248 -s 0 -d -1 -p tcp -e 1540 -c 2 -a 0 -i 5 -k AGT
+ -t 7.028197248 -s 0 -d -1 -p tcp -e 1540 -c 2 -a 0 -i 6 -k AGT 
- -t 7.028197248 -s 0 -d -1 -p tcp -e 1540 -c 2 -a 0 -i 6 -k AGT
h -t 7.028197248 -s 0 -d -1 -p tcp -e 1540 -c 2 -a 0 -i 6 -k AGT
+ -t 7.028197248 -s 0 -d 2 -p tcp -e 1540 -c 2 -a 0 -i 5 -k RTR 
- -t 7.028197248 -s 0 -d 2 -p tcp -e 1540 -c 2 -a 0 -i 5 -k RTR
h -t 7.028197248 -s 0 -d 2 -p tcp -e 1540 -c 2 -a 0 -i 5 -k RTR
+ -t 7.028197248 -s 0 -d 2 -p tcp -e 1540 -c 2 -a 0 -i 6 -k RTR 
- -t 7.028197248 -s 0 -d 2 -p tcp -e 1540 -c 2 -a 0 -i 6 -k RTR
h -t 7.028197248 -s 0 -d 2 -p tcp -e 1540 -c 2 -a 0 -i 6 -k RTR
r -t 7.028486728 -s 2 -d -1 -p ACK -e 38 -c 2 -a 0 -i 0 -k MAC
+ -t 7.028856248 -s 0 -d -1 -p RTS -e 44 -c 2 -a 0 -i 0 -k MAC 
- -t 7.028856248 -s 0 -d -1 -p RTS -e 44 -c 2 -a 0 -i 0 -k MAC
h -t 7.028856248 -s 0 -d -1 -p RTS -e 44 -c 2 -a 0 -i 0 -k MAC
r -t 7.029208728 -s 2 -d -1 -p RTS -e 44 -c 2 -a 0 -i 0 -k MAC
+ -t 7.029218728 -s 2 -d -1 -p CTS -e 38 -c 2 -a 0 -i 0 -k MAC 
- -t 7.029218728 -s 2 -d -1 -p CTS -e 38 -c 2 -a 0 -i 0 -k MAC
h -t 7.029218728 -s 2 -d -1 -p CTS -e 38 -c 2 -a 0 -i 0 -k MAC
r -t 7.029523208 -s 0 -d -1 -p CTS -e 38 -c 2 -a 0 -i 0 -k MAC
+ -t 7.029533208 -s 0 -d 2 -p tcp -e 98 -c 2 -a 0 -i 1 -k MAC 
- -t 7.029533208 -s 0 -d 2 -p tcp -e 98 -c 2 -a 0 -i 1 -k MAC
h -t 7.029533208 -s 0 -d 2 -p tcp -e 98 -c 2 -a 0 -i 1 -k MAC
r -t 7.030317687 -s 2 -d 2 -p tcp -e 40 -c 2 -a 0 -i 1 -k MAC
+ -t 7.030327687 -s 2 -d -1 -p ACK -e 38 -c 2 -a 0 -i 0 -k MAC 
- -t 7.030327687 -s 2 -d -1 -p ACK -e 38 -c 2 -a 0 -i 0 -k MAC
h -t 7.030327687 -s 2 -d -1 -p ACK -e 38 -c 2 -a 0 -i 0 -k MAC
r -t 7.030342687 -s 2 -d 2 -p tcp -e 40 -c 2 -a 0 -i 1 -k AGT
+ -t 7.030342687 -s 2 -d -1 -p ack -e 40 -c 2 -a 0 -i 7 -k AGT 
- -t 7.030342687 -s 2 -d -1 -p ack -e 40 -c 2 -a 0 -i 7 -k AGT
h -t 7.030342687 -s 2 -d -1 -p ack -e 40 -c 2 -a 0 -i 7 -k AGT
+ -t 7.030342687 -s 2 -d 0 -p ack -e 40 -c 2 -a 0 -i 7 -k RTR 
- -t 7.030342687 -s 2 -d 0 -p ack -e 40 -c 2 -a 0 -i 7 -k RTR
h -t 7.030342687 -s 2 -d 0 -p ack -e 40 -c 2 -a 0 -i 7 -k RTR
r -t 7.030632167 -s 0 -d -1 -p ACK -e 38 -c 2 -a 0 -i 0 -k MAC
+ -t 7.031082167 -s 0 -d -1 -p RTS -e 44 -c 2 -a 0 -i 0 -k MAC 
- -t 7.031082167 -s 0 -d -1 -p RTS -e 44 -c 2 -a 0 -i 0 -k MAC
h -t 7.031082167 -s 0 -d -1 -p RTS -e 44 -c 2 -a 0 -i 0 -k MAC
r -t 7.031434647 -s 2 -d -1 -p RTS -e 44 -c 2 -a 0 -i 0 -k MAC
+ -t 7.031444647 -s 2 -d -1 -p CTS -e 38 -c 2 -a 0 -i 0 -k MAC 
- -t 7.031444647 -s 2 -d -1 -p CTS -e 38 -c 2 -a 0 -i 0 -k MAC
h -t 7.031444647 -s 2 -d -1 -p CTS -e 38 -c 2 -a 0 -i 0 -k MAC
r -t 7.031749127 -s 0 -d -1 -p CTS -e 38 -c 2 -a 0 -i 0 -k MAC
+ -t 7.031759127 -s 0 -d 2 -p tcp -e 1598 -c 2 -a 0 -i 5 -k MAC 
- -t 7.031759127 -s 0 -d 2 -p tcp -e 1598 -c 2 -a 0 -i 5 -k MAC
h -t 7.031759127 -s 0 -d 2 -p tcp -e 1598 -c 2 -a 0 -i 5 -k MAC
r -t 7.044543607 -s 2 -d 2 -p tcp -e 1540 -c 2 -a 0 -i 5 -k MAC
+ -t 7.044553607 -s 2 -d -1 -p ACK -e 38 -c 2 -a 0 -i 0 -k MAC 
- -t 7.044553607 -s 2 -d -1 -p ACK -e 38 -c 2 -a 0 -i 0 -k MAC
h -t 7.044553607 -s 2 -d -1 -p ACK -e 38 -c 2 -a 0 -i 0 -k MAC
r -t 7.044568607 -s 2 -d 2 -p tcp -e 1540 -c 2 -a 0 -i 5 -k AGT
+ -t 7.044568607 -s 2 -d -1 -p ack -e 40 -c 2 -a 0 -i 8 -k AGT 
- -t 7.044568607 -s 2 -d -1 -p ack -e 40 -c 2 -a 0 -i 8 -k AGT
h -t 7.044568607 -s 2 -d -1 -p ack -e 40 -c 2 -a 0 -i 8 -k AGT
+ -t 7.044568607 -s 2 -d 0 -p ack -e 40 -c 2 -a 0 -i 8 -k RTR 
- -t 7.044568607 -s 2 -d 0 -p ack -e 40 -c 2 -a 0 -i 8 -k RTR
h -t 7.044568607 -s 2 -d 0 -p ack -e 40 -c 2 -a 0 -i 8 -k RTR
r -t 7.044858087 -s 0 -d -1 -p ACK -e 38 -c 2 -a 0 -i 0 -k MAC
+ -t 7.045087607 -s 2 -d -1 -p RTS -e 44 -c 2 -a 0 -i 0 -k MAC 
- -t 7.045087607 -s 2 -d -1 -p RTS -e 44 -c 2 -a 0 -i 0 -k MAC
h -t 7.045087607 -s 2 -d -1 -p RTS -e 44 -c 2 -a 0 -i 0 -k MAC
r -t 7.045440087 -s 0 -d -1 -p RTS -e 44 -c 2 -a 0 -i 0 -k MAC
+ -t 7.045450087 -s 0 -d -1 -p CTS -e 38 -c 2 -a 0 -i 0 -k MAC 
- -t 7.045450087 -s 0 -d -1 -p CTS -e 38 -c 2 -a 0 -i 0 -k MAC
h -t 7.045450087 -s 0 -d -1 -p CTS -e 38 -c 2 -a 0 -i 0 -k MAC
r -t 7.045754567 -s 2 -d -1 -p CTS -e 38 -c 2 -a 0 -i 0 -k MAC
+ -t 7.045764567 -s 2 -d 0 -p ack -e 98 -c 2 -a 0 -i 7 -k MAC 
- -t 7.045764567 -s 2 -d 0 -p ack -e 98 -c 2 -a 0 -i 7 -k MAC
h -t 7.045764567 -s 2 -d 0 -p ack -e 98 -c 2 -a 0 -i 7 -k MAC
r -t 7.046549046 -s 0 -d 0 -p ack -e 40 -c 2 -a 0 -i 7 -k MAC
+ -t 7.046559046 -s 0 -d -1 -p ACK -e 38 -c 2 -a 0 -i 0 -k MAC 
- -t 7.046559046 -s 0 -d -1 -p ACK -e 38 -c 2 -a 0 -i 0 -k MAC
h -t 7.046559046 -s 0 -d -1 -p ACK -e 38 -c 2 -a 0 -i 0 -k MAC
r -t 7.046574046 -s 0 -d 0 -p ack -e 40 -c 2 -a 0 -i 7 -k AGT
+ -t 7.046574046 -s 0 -d -1 -p tcp -e 1540 -c 2 -a 0 -i 9 -k AGT 
- -t 7.046574046 -s 0 -d -1 -p tcp -e 1540 -c 2 -a 0 -i 9 -k AGT
h -t 7.046574046 -s 0 -d -1 -p tcp -e 1540 -c 2 -a 0 -i 9 -k AGT
+ -t 7.046574046 -s 0 -d 2 -p tcp -e 1540 -c 2 -a 0 -i 9 -k RTR 
- -t 7.046574046 -s 0 -d 2 -p tcp -e 1540 -c 2 -a 0 -i 9 -k RTR
h -t 7.046574046 -s 0 -d 2 -p tcp -e 1540 -c 2 -a 0 -i 9 -k RTR
r -t 7.046863526 -s 2 -d -1 -p ACK -e 38 -c 2 -a 0 -i 0 -k MAC
+ -t 7.047273046 -s 0 -d -1 -p RTS -e 44 -c 2 -a 0 -i 0 -k MAC 
- -t 7.047273046 -s 0 -d -1 -p RTS -e 44 -c 2 -a 0 -i 0 -k MAC
h -t 7.047273046 -s 0 -d -1 -p RTS -e 44 -c 2 -a 0 -i 0 -k MAC
+ -t 7.047273526 -s 2 -d -1 -p RTS -e 44 -c 2 -a 0 -i 0 -k MAC 
- -t 7.047273526 -s 2 -d -1 -p RTS -e 44 -c 2 -a 0 -i 0 -k MAC
h -t 7.047273526 -s 2 -d -1 -p RTS -e 44 -c 2 -a 0 -i 0 -k MAC
+ -t 7.049060006 -s 0 -d -1 -p RTS -e 44 -c 2 -a 0 -i 0 -k MAC 
- -t 7.049060006 -s 0 -d -1 -p RTS -e 44 -c 2 -a 0 -i 0 -k MAC
h -t 7.049060006 -s 0 -d -1 -p RTS -e 44 -c 2 -a 0 -i 0 -k MAC
r -t 7.049412486 -s 2 -d -1 -p RTS -e 44 -c 2 -a 0 -i 0 -k MAC
+ -t 7.049422486 -s 2 -d -1 -p CTS -e 38 -c 2 -a 0 -i 0 -k MAC 
- -t 7.049422486 -s 2 -d -1 -p CTS -e 38 -c 2 -a 0 -i 0 -k MAC
h -t 7.049422486 -s 2 -d -1 -p CTS -e 38 -c 2 -a 0 -i 0 -k MAC
r -t 7.049726966 -s 0 -d -1 -p CTS -e 38 -c 2 -a 0 -i 0 -k MAC
+ -t 7.049736966 -s 0 -d 2 -p tcp -e 1598 -c 2 -a 0 -i 6 -k MAC 
- -t 7.049736966 -s 0 -d 2 -p tcp -e 1598 -c 2 -a 0 -i 6 -k MAC
h -t 7.049736966 -s 0 -d 2 -p tcp -e 1598 -c 2 -a 0 -i 6 -k MAC
r -t 7.062521446 -s 2 -d 2 -p tcp -e 1540 -c 2 -a 0 -i 6 -k MAC
+ -t 7.062531446 -s 2 -d -1 -p ACK -e 38 -c 2 -a 0 -i 0 -k MAC 
- -t 7.062531446 -s 2 -d -1 -p ACK -e 38 -c 2 -a 0 -i 0 -k MAC
h -t 7.062531446 -s 2 -d -1 -p ACK -e 38 -c 2 -a 0 -i 0 -k MAC
r -t 7.062546446 -s 2 -d 2 -p tcp -e 1540 -c 2 -a 0 -i 6 -k AGT
+ -t 7.062546446 -s 2 -d -1 -p ack -e 40 -c 2 -a 0 -i 10 -k AGT 
- -t 7.062546446 -s 2 -d -1 -p ack -e 40 -c 2 -a 0 -i 10 -k AGT
h -t 7.062546446 -s 2 -d -1 -p ack -e 40 -c 2 -a 0 -i 10 -k AGT
+ -t 7.062546446 -s 2 -d 0 -p ack -e 40 -c 2 -a 0 -i 10 -k RTR 
- -t 7.062546446 -s 2 -d 0 -p ack -e 40 -c 2 -a 0 -i 10 -k RTR
h -t 7.062546446 -s 2 -d 0 -p ack -e 40 -c 2 -a 0 -i 10 -k RTR
r -t 7.062835926 -s 0 -d -1 -p ACK -e 38 -c 2 -a 0 -i 0 -k MAC
+ -t 7.062985446 -s 2 -d -1 -p RTS -e 44 -c 2 -a 0 -i 0 -k MAC 
- -t 7.062985446 -s 2 -d -1 -p RTS -e 44 -c 2 -a 0 -i 0 -k MAC
h -t 7.062985446 -s 2 -d -1 -p RTS -e 44 -c 2 -a 0 -i 0 -k MAC
r -t 7.063337926 -s 0 -d -1 -p RTS -e 44 -c 2 -a 0 -i 0 -k MAC
+ -t 7.063347926 -s 0 -d -1 -p CTS -e 38 -c 2 -a 0 -i 0 -k MAC 
- -t 7.063347926 -s 0 -d -1 -p CTS -e 38 -c 2 -a 0 -i 0 -k MAC
h -t 7.063347926 -s 0 -d -1 -p CTS -e 38 -c 2 -a 0 -i 0 -k MAC
r -t 7.063652406 -s 2 -d -1 -p CTS -e 38 -c 2 -a 0 -i 0 -k MAC
+ -t 7.063662406 -s 2 -d 0 -p ack -e 98 -c 2 -a 0 -i 8 -k MAC 
- -t 7.063662406 -s 2 -d 0 -p ack -e 98 -c 2 -a 0 -i 8 -k MAC
h -t 7.063662406 -s 2 -d 0 -p ack -e 98 -c 2 -a 0 -i 8 -k MAC
r -t 7.064446885 -s 0 -d 0 -p ack -e 40 -c 2 -a 0 -i 8 -k MAC
+ -t 7.064456885 -s 0 -d -1 -p ACK -e 38 -c 2 -a 0 -i 0 -k MAC 
- -t 7.064456885 -s 0 -d -1 -p ACK -e 38 -c 2 -a 0 -i 0 -k MAC
h -t 7.064456885 -s 0 -d -1 -p ACK -e 38 -c 2 -a 0 -i 0 -k MAC
r -t 7.064471885 -s 0 -d 0 -p ack -e 40 -c 2 -a 0 -i 8 -k AGT
r -t 7.064761365 -s 2 -d -1 -p ACK -e 38 -c 2 -a 0 -i 0 -k MAC
+ -t 7.064951365 -s 2 -d -1 -p RTS -e 44 -c 2 -a 0 -i 0 -k MAC 
- -t 7.064951365 -s 2 -d -1 -p RTS -e 44 -c 2 -a 0 -i 0 -k MAC
h -t 7.064951365 -s 2 -d -1 -p RTS -e 44 -c 2 -a 0 -i 0 -k MAC
r -t 7.065303845 -s 0 -d -1 -p RTS -e 44 -c 2 -a 0 -i 0 -k MAC
+ -t 7.065313845 -s 0 -d -1 -p CTS -e 38 -c 2 -a 0 -i 0 -k MAC 
- -t 7.065313845 -s 0 -d -1 -p CTS -e 38 -c 2 -a 0 -i 0 -k MAC
h -t 7.065313845 -s 0 -d -1 -p CTS -e 38 -c 2 -a 0 -i 0 -k MAC
r -t 7.065618325 -s 2 -d -1 -p CTS -e 38 -c 2 -a 0 -i 0 -k MAC
+ -t 7.065628325 -s 2 -d 0 -p ack -e 98 -c 2 -a 0 -i 10 -k MAC 
- -t 7.065628325 -s 2 -d 0 -p ack -e 98 -c 2 -a 0 -i 10 -k MAC
h -t 7.065628325 -s 2 -d 0 -p ack -e 98 -c 2 -a 0 -i 10 -k MAC
r -t 7.066412805 -s 0 -d 0 -p ack -e 40 -c 2 -a 0 -i 10 -k MAC
+ -t 7.066422805 -s 0 -d -1 -p ACK -e 38 -c 2 -a 0 -i 0 -k MAC 
- -t 7.066422805 -s 0 -d -1 -p ACK -e 38 -c 2 -a 0 -i 0 -k MAC
h -t 7.066422805 -s 0 -d -1 -p ACK -e 38 -c 2 -a 0 -i 0 -k MAC
r -t 7.066437805 -s 0 -d 0 -p ack -e 40 -c 2 -a 0 -i 10 -k AGT
+ -t 7.066437805 -s 0 -d -1 -p tcp -e 1540 -c 2 -a 0 -i 11 -k AGT 
- -t 7.066437805 -s 0 -d -1 -p tcp -e 1540 -c 2 -a 0 -i 11 -k AGT
h -t 7.066437805 -s 0 -d -1 -p tcp -e 1540 -c 2 -a 0 -i 11 -k AGT
+ -t 7.066437805 -s 0 -d 2 -p tcp -e 1540 -c 2 -a 0 -i 11 -k RTR 
- -t 7.066437805 -s 0 -d 2 -p tcp -e 1540 -c 2 -a 0 -i 11 -k RTR
h -t 7.066437805 -s 0 -d 2 -p tcp -e 1540 -c 2 -a 0 -i 11 -k RTR
r -t 7.066727285 -s 2 -d -1 -p ACK -e 38 -c 2 -a 0 -i 0 -k MAC
+ -t 7.066916805 -s 0 -d -1 -p RTS -e 44 -c 2 -a 0 -i 0 -k MAC 
- -t 7.066916805 -s 0 -d -1 -p RTS -e 44 -c 2 -a 0 -i 0 -k MAC
h -t 7.066916805 -s 0 -d -1 -p RTS -e 44 -c 2 -a 0 -i 0 -k MAC
r -t 7.067269285 -s 2 -d -1 -p RTS -e 44 -c 2 -a 0 -i 0 -k MAC
+ -t 7.067279285 -s 2 -d -1 -p CTS -e 38 -c 2 -a 0 -i 0 -k MAC 
- -t 7.067279285 -s 2 -d -1 -p CTS -e 38 -c 2 -a 0 -i 0 -k MAC
h -t 7.067279285 -s 2 -d -1 -p CTS -e 38 -c 2 -a 0 -i 0 -k MAC
r -t 7.067583765 -s 0 -d -1 -p CTS -e 38 -c 2 -a 0 -i 0 -k MAC
+ -t 7.067593765 -s 0 -d 2 -p tcp -e 1598 -c 2 -a 0 -i 9 -k MAC 
- -t 7.067593765 -s 0 -d 2 -p tcp -e 1598 -c 2 -a 0 -i 9 -k MAC
h -t 7.067593765 -s 0 -d 2 -p tcp -e 1598 -c 2 -a 0 -i 9 -k MAC
r -t 7.080378245 -s 2 -d 2 -p tcp -e 1540 -c 2 -a 0 -i 9 -k MAC
+ -t 7.080388245 -s 2 -d -1 -p ACK -e 38 -c 2 -a 0 -i 0 -k MAC 
- -t 7.080388245 -s 2 -d -1 -p ACK -e 38 -c 2 -a 0 -i 0 -k MAC
h -t 7.080388245 -s 2 -d -1 -p ACK -e 38 -c 2 -a 0 -i 0 -k MAC
r -t 7.080403245 -s 2 -d 2 -p tcp -e 1540 -c 2 -a 0 -i 9 -k AGT
+ -t 7.080403245 -s 2 -d -1 -p ack -e 40 -c 2 -a 0 -i 12 -k AGT 
- -t 7.080403245 -s 2 -d -1 -p ack -e 40 -c 2 -a 0 -i 12 -k AGT
h -t 7.080403245 -s 2 -d -1 -p ack -e 40 -c 2 -a 0 -i 12 -k AGT
+ -t 7.080403245 -s 2 -d 0 -p ack -e 40 -c 2 -a 0 -i 12 -k RTR 
- -t 7.080403245 -s 2 -d 0 -p ack -e 40 -c 2 -a 0 -i 12 -k RTR
h -t 7.080403245 -s 2 -d 0 -p ack -e 40 -c 2 -a 0 -i 12 -k RTR
r -t 7.080692724 -s 0 -d -1 -p ACK -e 38 -c 2 -a 0 -i 0 -k MAC
+ -t 7.080942724 -s 0 -d -1 -p RTS -e 44 -c 2 -a 0 -i 0 -k MAC 
- -t 7.080942724 -s 0 -d -1 -p RTS -e 44 -c 2 -a 0 -i 0 -k MAC
h -t 7.080942724 -s 0 -d -1 -p RTS -e 44 -c 2 -a 0 -i 0 -k MAC
r -t 7.081295204 -s 2 -d -1 -p RTS -e 44 -c 2 -a 0 -i 0 -k MAC
+ -t 7.081305204 -s 2 -d -1 -p CTS -e 38 -c 2 -a 0 -i 0 -k MAC 
- -t 7.081305204 -s 2 -d -1 -p CTS -e 38 -c 2 -a 0 -i 0 -k MAC
h -t 7.081305204 -s 2 -d -1 -p CTS -e 38 -c 2 -a 0 -i 0 -k MAC
r -t 7.081609684 -s 0 -d -1 -p CTS -e 38 -c 2 -a 0 -i 0 -k MAC
+ -t 7.081619684 -s 0 -d 2 -p tcp -e 1598 -c 2 -a 0 -i 11 -k MAC 
- -t 7.081619684 -s 0 -d 2 -p tcp -e 1598 -c 2 -a 0 -i 11 -k MAC
h -t 7.081619684 -s 0 -d 2 -p tcp -e 1598 -c 2 -a 0 -i 11 -k MAC
r -t 7.094404164 -s 2 -d 2 -p tcp -e 1540 -c 2 -a 0 -i 11 -k MAC
+ -t 7.094414164 -s 2 -d -1 -p ACK -e 38 -c 2 -a 0 -i 0 -k MAC 
- -t 7.094414164 -s 2 -d -1 -p ACK -e 38 -c 2 -a 0 -i 0 -k MAC
h -t 7.094414164 -s 2 -d -1 -p ACK -e 38 -c 2 -a 0 -i 0 -k MAC
r -t 7.094429164 -s 2 -d 2 -p tcp -e 1540 -c 2 -a 0 -i 11 -k AGT
+ -t 7.094429164 -s 2 -d -1 -p ack -e 40 -c 2 -a 0 -i 13 -k AGT 
- -t 7.094429164 -s 2 -d -1 -p ack -e 40 -c 2 -a 0 -i 13 -k AGT
h -t 7.094429164 -s 2 -d -1 -p ack -e 40 -c 2 -a 0 -i 13 -k AGT
+ -t 7.094429164 -s 2 -d 0 -p ack -e 40 -c 2 -a 0 -i 13 -k RTR 
- -t 7.094429164 -s 2 -d 0 -p ack -e 40 -c 2 -a 0 -i 13 -k RTR
h -t 7.094429164 -s 2 -d 0 -p ack -e 40 -c 2 -a 0 -i 13 -k RTR
r -t 7.094718644 -s 0 -d -1 -p ACK -e 38 -c 2 -a 0 -i 0 -k MAC
+ -t 7.094848164 -s 2 -d -1 -p RTS -e 44 -c 2 -a 0 -i 0 -k MAC 
- -t 7.094848164 -s 2 -d -1 -p RTS -e 44 -c 2 -a 0 -i 0 -k MAC
h -t 7.094848164 -s 2 -d -1 -p RTS -e 44 -c 2 -a 0 -i 0 -k MAC
r -t 7.095200644 -s 0 -d -1 -p RTS -e 44 -c 2 -a 0 -i 0 -k MAC
+ -t 7.095210644 -s 0 -d -1 -p CTS -e 38 -c 2 -a 0 -i 0 -k MAC 
- -t 7.095210644 -s 0 -d -1 -p CTS -e 38 -c 2 -a 0 -i 0 -k MAC
h -t 7.095210644 -s 0 -d -1 -p CTS -e 38 -c 2 -a 0 -i 0 -k MAC
r -t 7.095515124 -s 2 -d -1 -p CTS -e 38 -c 2 -a 0 -i 0 -k MAC
+ -t 7.095525124 -s 2 -d 0 -p ack -e 98 -c 2 -a 0 -i 12 -k MAC 
- -t 7.095525124 -s 2 -d 0 -p ack -e 98 -c 2 -a 0 -i 12 -k MAC
h -t 7.095525124 -s 2 -d 0 -p ack -e 98 -c 2 -a 0 -i 12 -k MAC
r -t 7.096309604 -s 0 -d 0 -p ack -e 40 -c 2 -a 0 -i 12 -k MAC
+ -t 7.096319604 -s 0 -d -1 -p ACK -e 38 -c 2 -a 0 -i 0 -k MAC 
- -t 7.096319604 -s 0 -d -1 -p ACK -e 38 -c 2 -a 0 -i 0 -k MAC
h -t 7.096319604 -s 0 -d -1 -p ACK -e 38 -c 2 -a 0 -i 0 -k MAC
r -t 7.096334604 -s 0 -d 0 -p ack -e 40 -c 2 -a 0 -i 12 -k AGT
+ -t 7.096334604 -s 0 -d -1 -p tcp -e 1540 -c 2 -a 0 -i 14 -k AGT 
- -t 7.096334604 -s 0 -d -1 -p tcp -e 1540 -c 2 -a 0 -i 14 -k AGT
h -t 7.096334604 -s 0 -d -1 -p tcp -e 1540 -c 2 -a 0 -i 14 -k AGT
+ -t 7.096334604 -s 0 -d -1 -p tcp -e 1540 -c 2 -a 0 -i 15 -k AGT 
- -t 7.096334604 -s 0 -d -1 -p tcp -e 1540 -c 2 -a 0 -i 15 -k AGT
h -t 7.096334604 -s 0 -d -1 -p tcp -e 1540 -c 2 -a 0 -i 15 -k AGT
+ -t 7.096334604 -s 0 -d 2 -p tcp -e 1540 -c 2 -a 0 -i 14 -k RTR 
- -t 7.096334604 -s 0 -d 2 -p tcp -e 1540 -c 2 -a 0 -i 14 -k RTR
h -t 7.096334604 -s 0 -d 2 -p tcp -e 1540 -c 2 -a 0 -i 14 -k RTR
+ -t 7.096334604 -s 0 -d 2 -p tcp -e 1540 -c 2 -a 0 -i 15 -k RTR 
- -t 7.096334604 -s 0 -d 2 -p tcp -e 1540 -c 2 -a 0 -i 15 -k RTR
h -t 7.096334604 -s 0 -d 2 -p tcp -e 1540 -c 2 -a 0 -i 15 -k RTR
r -t 7.096624084 -s 2 -d -1 -p ACK -e 38 -c 2 -a 0 -i 0 -k MAC
+ -t 7.096693604 -s 0 -d -1 -p RTS -e 44 -c 2 -a 0 -i 0 -k MAC 
- -t 7.096693604 -s 0 -d -1 -p RTS -e 44 -c 2 -a 0 -i 0 -k MAC
h -t 7.096693604 -s 0 -d -1 -p RTS -e 44 -c 2 -a 0 -i 0 -k MAC
r -t 7.097046084 -s 2 -d -1 -p RTS -e 44 -c 2 -a 0 -i 0 -k MAC
+ -t 7.097056084 -s 2 -d -1 -p CTS -e 38 -c 2 -a 0 -i 0 -k MAC 
- -t 7.097056084 -s 2 -d -1 -p CTS -e 38 -c 2 -a 0 -i 0 -k MAC
h -t 7.097056084 -s 2 -d -1 -p CTS -e 38 -c 2 -a 0 -i 0 -k MAC
r -t 7.097360563 -s 0 -d -1 -p CTS -e 38 -c 2 -a 0 -i 0 -k MAC
+ -t 7.097370563 -s 0 -d 2 -p tcp -e 1598 -c 2 -a 0 -i 14 -k MAC 
- -t 7.097370563 -s 0 -d 2 -p tcp -e 1598 -c 2 -a 0 -i 14 -k MAC
h -t 7.097370563 -s 0 -d 2 -p tcp -e 1598 -c 2 -a 0 -i 14 -k MAC
r -t 7.110155043 -s 2 -d 2 -p tcp -e 1540 -c 2 -a 0 -i 14 -k MAC
+ -t 7.110165043 -s 2 -d -1 -p ACK -e 38 -c 2 -a 0 -i 0 -k MAC 
- -t 7.110165043 -s 2 -d -1 -p ACK -e 38 -c 2 -a 0 -i 0 -k MAC
h -t 7.110165043 -s 2 -d -1 -p ACK -e 38 -c 2 -a 0 -i 0 -k MAC
r -t 7.110180043 -s 2 -d 2 -p tcp -e 1540 -c 2 -a 0 -i 14 -k AGT
+ -t 7.110180043 -s 2 -d -1 -p ack -e 40 -c 2 -a 0 -i 16 -k AGT 
- -t 7.110180043 -s 2 -d -1 -p ack -e 40 -c 2 -a 0 -i 16 -k AGT
h -t 7.110180043 -s 2 -d -1 -p ack -e 40 -c 2 -a 0 -i 16 -k AGT
+ -t 7.110180043 -s 2 -d 0 -p ack -e 40 -c 2 -a 0 -i 16 -k RTR 
- -t 7.110180043 -s 2 -d 0 -p ack -e 40 -c 2 -a 0 -i 16 -k RTR
h -t 7.110180043 -s 2 -d 0 -p ack -e 40 -c 2 -a 0 -i 16 -k RTR
r -t 7.110469523 -s 0 -d -1 -p ACK -e 38 -c 2 -a 0 -i 0 -k MAC
+ -t 7.110739523 -s 0 -d -1 -p RTS -e 44 -c 2 -a 0 -i 0 -k MAC 
- -t 7.110739523 -s 0 -d -1 -p RTS -e 44 -c 2 -a 0 -i 0 -k MAC
h -t 7.110739523 -s 0 -d -1 -p RTS -e 44 -c 2 -a 0 -i 0 -k MAC
r -t 7.111092003 -s 2 -d -1 -p RTS -e 44 -c 2 -a 0 -i 0 -k MAC
+ -t 7.111102003 -s 2 -d -1 -p CTS -e 38 -c 2 -a 0 -i 0 -k MAC 
- -t 7.111102003 -s 2 -d -1 -p CTS -e 38 -c 2 -a 0 -i 0 -k MAC
h -t 7.111102003 -s 2 -d -1 -p CTS -e 38 -c 2 -a 0 -i 0 -k MAC
r -t 7.111406483 -s 0 -d -1 -p CTS -e 38 -c 2 -a 0 -i 0 -k MAC
+ -t 7.111416483 -s 0 -d 2 -p tcp -e 1598 -c 2 -a 0 -i 15 -k MAC 
- -t 7.111416483 -s 0 -d 2 -p tcp -e 1598 -c 2 -a 0 -i 15 -k MAC
h -t 7.111416483 -s 0 -d 2 -p tcp -e 1598 -c 2 -a 0 -i 15 -k MAC
r -t 7.124200963 -s 2 -d 2 -p tcp -e 1540 -c 2 -a 0 -i 15 -k MAC
+ -t 7.124210963 -s 2 -d -1 -p ACK -e 38 -c 2 -a 0 -i 0 -k MAC 
- -t 7.124210963 -s 2 -d -1 -p ACK -e 38 -c 2 -a 0 -i 0 -k MAC
h -t 7.124210963 -s 2 -d -1 -p ACK -e 38 -c 2 -a 0 -i 0 -k MAC
r -t 7.124225963 -s 2 -d 2 -p tcp -e 1540 -c 2 -a 0 -i 15 -k AGT
+ -t 7.124225963 -s 2 -d -1 -p ack -e 40 -c 2 -a 0 -i 17 -k AGT 
- -t 7.124225963 -s 2 -d -1 -p ack -e 40 -c 2 -a 0 -i 17 -k AGT
h -t 7.124225963 -s 2 -d -1 -p ack -e 40 -c 2 -a 0 -i 17 -k AGT
+ -t 7.124225963 -s 2 -d 0 -p ack -e 40 -c 2 -a 0 -i 17 -k RTR 
- -t 7.124225963 -s 2 -d 0 -p ack -e 40 -c 2 -a 0 -i 17 -k RTR
h -t 7.124225963 -s 2 -d 0 -p ack -e 40 -c 2 -a 0 -i 17 -k RTR
r -t 7.124515443 -s 0 -d -1 -p ACK -e 38 -c 2 -a 0 -i 0 -k MAC
+ -t 7.124844963 -s 2 -d -1 -p RTS -e 44 -c 2 -a 0 -i 0 -k MAC 
- -t 7.124844963 -s 2 -d -1 -p RTS -e 44 -c 2 -a 0 -i 0 -k MAC
h -t 7.124844963 -s 2 -d -1 -p RTS -e 44 -c 2 -a 0 -i 0 -k MAC
r -t 7.125197443 -s 0 -d -1 -p RTS -e 44 -c 2 -a 0 -i 0 -k MAC
+ -t 7.125207443 -s 0 -d -1 -p CTS -e 38 -c 2 -a 0 -i 0 -k MAC 
- -t 7.125207443 -s 0 -d -1 -p CTS -e 38 -c 2 -a 0 -i 0 -k MAC
h -t 7.125207443 -s 0 -d -1 -p CTS -e 38 -c 2 -a 0 -i 0 -k MAC