M 1.00000 1 (700.00, 212.00, 0.00), (366.00, 304.00), 140.00
M 1.00000 2 (994.00, 209.00, 0.00), (281.00, 174.00), 140.00
s 1.000000000 _0_ AGT  --- 0 tcp 40 [0 0 0 0] ------- [0:0 2:0 32 0] [0 0] 0 0
r 1.000000000 _0_ RTR  --- 0 tcp 40 [0 0 0 0] ------- [0:0 2:0 32 0] [0 0] 0 0
s 1.000000000 _0_ RTR  --- 0 AODV 48 [0 0 0 0] ------- [0:255 -1:255 30 0] [0x2 1 1 [2 0] [0 4]] (REQUEST)
s 1.000115000 _0_ MAC  --- 0 AODV 106 [0 ffffffff 0 800] ------- [0:255 -1:255 30 0] [0x2 1 1 [2 0] [0 4]] (REQUEST)
s 3.000000000 _0_ RTR  --- 0 AODV 48 [0 0 0 0] ------- [0:255 -1:255 30 0] [0x2 1 2 [2 0] [0 6]] (REQUEST)
s 3.000375000 _0_ MAC  --- 0 AODV 106 [0 ffffffff 0 800] ------- [0:255 -1:255 30 0] [0x2 1 2 [2 0] [0 6]] (REQUEST)
r 3.001223241 _1_ MAC  --- 0 AODV 48 [0 ffffffff 0 800] ------- [0:255 -1:255 30 0] [0x2 1 2 [2 0] [0 6]] (REQUEST)
r 3.001248241 _1_ RTR  --- 0 AODV 48 [0 ffffffff 0 800] ------- [0:255 -1:255 30 0] [0x2 1 2 [2 0] [0 6]] (REQUEST)
s 3.009239795 _1_ RTR  --- 0 AODV 48 [0 ffffffff 0 800] ------- [1:255 -1:255 29 0] [0x2 2 2 [2 0] [0 6]] (REQUEST)
s 3.009474795 _1_ MAC  --- 0 AODV 106 [0 ffffffff 1 800] ------- [1:255 -1:255 29 0] [0x2 2 2 [2 0] [0 6]] (REQUEST)
r 3.010323036 _0_ MAC  --- 0 AODV 48 [0 ffffffff 1 800] ------- [1:255 -1:255 29 0] [0x2 2 2 [2 0] [0 6]] (REQUEST)
r 3.010348036 _0_ RTR  --- 0 AODV 48 [0 ffffffff 1 800] ------- [1:255 -1:255 29 0] [0x2 2 2 [2 0] [0 6]] (REQUEST)
s 4.000000000 _0_ AGT  --- 1 tcp 40 [0 0 0 0] ------- [0:0 2:0 32 0] [0 0] 0 0
r 4.000000000 _0_ RTR  --- 1 tcp 40 [0 0 0 0] ------- [0:0 2:0 32 0] [0 0] 0 0
s 7.000000000 _0_ RTR  --- 0 AODV 48 [0 0 0 0] ------- [0:255 -1:255 30 0] [0x2 1 3 [2 0] [0 8]] (REQUEST)
s 7.000315000 _0_ MAC  --- 0 AODV 106 [0 ffffffff 0 800] ------- [0:255 -1:255 30 0] [0x2 1 3 [2 0] [0 8]] (REQUEST)
r 7.001163345 _1_ MAC  --- 0 AODV 48 [0 ffffffff 0 800] ------- [0:255 -1:255 30 0] [0x2 1 3 [2 0] [0 8]] (REQUEST)
r 7.001163480 _2_ MAC  --- 0 AODV 48 [0 ffffffff 0 800] ------- [0:255 -1:255 30 0] [0x2 1 3 [2 0] [0 8]] (REQUEST)
r 7.001188345 _1_ RTR  --- 0 AODV 48 [0 ffffffff 0 800] ------- [0:255 -1:255 30 0] [0x2 1 3 [2 0] [0 8]] (REQUEST)
r 7.001188480 _2_ RTR  --- 0 AODV 48 [0 ffffffff 0 800] ------- [0:255 -1:255 30 0] [0x2 1 3 [2 0] [0 8]] (REQUEST)
s 7.001188480 _2_ RTR  --- 0 AODV 44 [0 0 0 0] ------- [2:255 0:255 30 0] [0x4 1 [2 4] 10.000000] (REPLY)
s 7.001483480 _2_ MAC  --- 0 ARP 86 [0 ffffffff 2 806] ------- [REQUEST 2/2 0/0]
r 7.002171960 _0_ MAC  --- 0 ARP 28 [0 ffffffff 2 806] ------- [REQUEST 2/2 0/0]
r 7.002171998 _1_ MAC  --- 0 ARP 28 [0 ffffffff 2 806] ------- [REQUEST 2/2 0/0]
s 7.002321960 _0_ MAC  --- 0 RTS 44 [52e 2 0 0] 
r 7.002674440 _2_ MAC  --- 0 RTS 44 [52e 2 0 0] 
s 7.002684440 _2_ MAC  --- 0 CTS 38 [3f4 0 0 0] 
r 7.002988919 _0_ MAC  --- 0 CTS 38 [3f4 0 0 0] 
s 7.002998919 _0_ MAC  --- 0 ARP 86 [13a 2 0 806] ------- [REPLY 0/0 2/2]
r 7.003687399 _2_ MAC  --- 0 ARP 28 [13a 2 0 806] ------- [REPLY 0/0 2/2]
s 7.003697399 _2_ MAC  --- 0 ACK 38 [0 0 0 0] 
r 7.004001879 _0_ MAC  --- 0 ACK 38 [0 0 0 0] 
s 7.004279136 _1_ RTR  --- 0 AODV 48 [0 ffffffff 0 800] ------- [1:255 -1:255 29 0] [0x2 2 3 [2 0] [0 8]] (REQUEST)
s 7.004591399 _2_ MAC  --- 0 RTS 44 [5ae 0 2 0] 
r 7.004943879 _0_ MAC  --- 0 RTS 44 [5ae 0 2 0] 
s 7.004953879 _0_ MAC  --- 0 CTS 38 [474 2 0 0] 
r 7.005258359 _2_ MAC  --- 0 CTS 38 [474 2 0 0] 
s 7.005268359 _2_ MAC  --- 0 AODV 102 [13a 0 2 800] ------- [2:255 0:255 30 0] [0x4 1 [2 4] 10.000000] (REPLY)
r 7.006084839 _0_ MAC  --- 0 AODV 44 [13a 0 2 800] ------- [2:255 0:255 30 0] [0x4 1 [2 4] 10.000000] (REPLY)
s 7.006094839 _0_ MAC  --- 0 ACK 38 [0 2 0 0] 
r 7.006109839 _0_ RTR  --- 0 AODV 44 [13a 0 2 800] ------- [2:255 0:255 30 0] [0x4 1 [2 4] 10.000000] (REPLY)
s 7.006109839 _0_ RTR  --- 0 tcp 40 [0 0 0 0] ------- [0:0 2:0 30 2] [0 0] 0 0
r 7.006399319 _2_ MAC  --- 0 ACK 38 [0 2 0 0] 
s 7.006589184 _1_ MAC  --- 0 AODV 106 [0 ffffffff 1 800] ------- [1:255 -1:255 29 0] [0x2 2 3 [2 0] [0 8]] (REQUEST)
r 7.007437530 _0_ MAC  --- 0 AODV 48 [0 ffffffff 1 800] ------- [1:255 -1:255 29 0] [0x2 2 3 [2 0] [0 8]] (REQUEST)
r 7.007437702 _2_ MAC  --- 0 AODV 48 [0 ffffffff 1 800] ------- [1:255 -1:255 29 0] [0x2 2 3 [2 0] [0 8]] (REQUEST)
r 7.007462530 _0_ RTR  --- 0 AODV 48 [0 ffffffff 1 800] ------- [1:255 -1:255 29 0] [0x2 2 3 [2 0] [0 8]] (REQUEST)
r 7.007462702 _2_ RTR  --- 0 AODV 48 [0 ffffffff 1 800] ------- [1:255 -1:255 29 0] [0x2 2 3 [2 0] [0 8]] (REQUEST)
s 7.007587530 _0_ MAC  --- 0 RTS 44 [58e 2 0 0] 
r 7.007940009 _2_ MAC  --- 0 RTS 44 [58e 2 0 0] 
s 7.007950009 _2_ MAC  --- 0 CTS 38 [454 0 0 0] 
r 7.008254489 _0_ MAC  --- 0 CTS 38 [454 0 0 0] 
s 7.008264489 _0_ MAC  --- 0 tcp 98 [13a 2 0 800] ------- [0:0 2:0 30 2] [0 0] 0 0
r 7.009048969 _2_ MAC  --- 0 tcp 40 [13a 2 0 800] ------- [0:0 2:0 30 2] [0 0] 1 0
s 7.009058969 _2_ MAC  --- 0 ACK 38 [0 0 0 0] 
r 7.009073969 _2_ AGT  --- 0 tcp 40 [13a 2 0 800] ------- [0:0 2:0 30 2] [0 0] 1 0
s 7.009073969 _2_ AGT  --- 2 ack 40 [0 0 0 0] ------- [2:0 0:0 32 0] [0 0] 0 0
r 7.009073969 _2_ RTR  --- 2 ack 40 [0 0 0 0] ------- [2:0 0:0 32 0] [0 0] 0 0
s 7.009073969 _2_ RTR  --- 2 ack 40 [0 0 0 0] ------- [2:0 0:0 30 0] [0 0] 0 0
r 7.009363449 _0_ MAC  --- 0 ACK 38 [0 0 0 0] 
s 7.009752969 _2_ MAC  --- 0 RTS 44 [58e 0 2 0] 
r 7.010105449 _0_ MAC  --- 0 RTS 44 [58e 0 2 0] 
s 7.010115449 _0_ MAC  --- 0 CTS 38 [454 2 0 0] 
r 7.010419929 _2_ MAC  --- 0 CTS 38 [454 2 0 0] 
s 7.010429929 _2_ MAC  --- 2 ack 98 [13a 0 2 800] ------- [2:0 0:0 30 0] [0 0] 0 0
r 7.011214409 _0_ MAC  --- 2 ack 40 [13a 0 2 800] ------- [2:0 0:0 30 0] [0 0] 1 0
s 7.011224409 _0_ MAC  --- 0 ACK 38 [0 2 0 0] 
r 7.011239409 _0_ AGT  --- 2 ack 40 [13a 0 2 800] ------- [2:0 0:0 30 0] [0 0] 1 0
s 7.011239409 _0_ AGT  --- 3 tcp 1540 [0 0 0 0] ------- [0:0 2:0 32 0] [1 0] 0 0
r 7.011239409 _0_ RTR  --- 3 tcp 1540 [0 0 0 0] ------- [0:0 2:0 32 0] [1 0] 0 0
s 7.011239409 _0_ RTR  --- 3 tcp 1540 [0 0 0 0] ------- [0:0 2:0 30 2] [1 0] 0 0
r 7.011528889 _2_ MAC  --- 0 ACK 38 [0 2 0 0] 
s 7.011778409 _0_ MAC  --- 0 RTS 44 [346e 2 0 0] 
r 7.012130889 _2_ MAC  --- 0 RTS 44 [346e 2 0 0] 
s 7.012140889 _2_ MAC  --- 0 CTS 38 [3334 0 0 0] 
r 7.012445369 _0_ MAC  --- 0 CTS 38 [3334 0 0 0] 
s 7.012455369 _0_ MAC  --- 3 tcp 1598 [13a 2 0 800] ------- [0:0 2:0 30 2] [1 0] 0 0
s 7.016109839 _0_ RTR  --- 1 tcp 40 [0 0 0 0] ------- [0:0 2:0 30 2] [0 0] 0 0
r 7.025239848 _2_ MAC  --- 3 tcp 1540 [13a 2 0 800] ------- [0:0 2:0 30 2] [1 0] 1 0
s 7.025249848 _2_ MAC  --- 0 ACK 38 [0 0 0 0] 
r 7.025264848 _2_ AGT  --- 3 tcp 1540 [13a 2 0 800] ------- [0:0 2:0 30 2] [1 0] 1 0
s 7.025264848 _2_ AGT  --- 4 ack 40 [0 0 0 0] ------- [2:0 0:0 32 0] [1 0] 0 0
r 7.025264848 _2_ RTR  --- 4 ack 40 [0 0 0 0] ------- [2:0 0:0 32 0] [1 0] 0 0
s 7.025264848 _2_ RTR  --- 4 ack 40 [0 0 0 0] ------- [2:0 0:0 30 0] [1 0] 0 0
r 7.025554328 _0_ MAC  --- 0 ACK 38 [0 0 0 0] 
s 7.025623848 _2_ MAC  --- 0 RTS 44 [58e 0 2 0] 
s 7.025624328 _0_ MAC  --- 0 RTS 44 [58e 2 0 0] 
s 7.026710808 _2_ MAC  --- 0 RTS 44 [58e 0 2 0] 
r 7.027063288 _0_ MAC  --- 0 RTS 44 [58e 0 2 0] 
s 7.027073288 _0_ MAC  --- 0 CTS 38 [454 2 0 0] 
r 7.027377768 _2_ MAC  --- 0 CTS 38 [454 2 0 0] 
s 7.027387768 _2_ MAC  --- 4 ack 98 [13a 0 2 800] ------- [2:0 0:0 30 0] [1 0] 0 0
r 7.028172248 _0_ MAC  --- 4 ack 40 [13a 0 2 800] ------- [2:0 0:0 30 0] [1 0] 1 0
s 7.028182248 _0_ MAC  --- 0 ACK 38 [0 2 0 0] 
r 7.028197248 _0_ AGT  --- 4 ack 40 [13a 0 2 800] ------- [2:0 0:0 30 0] [1 0] 1 0
s 7.028197248 _0_ AGT  --- 5 tcp 1540 [0 0 0 0] ------- [0:0 2:0 32 0] [2 0] 0 0
r 7.028197248 _0_ RTR  --- 5 tcp 1540 [0 0 0 0] ------- [0:0 2:0 32 0] [2 0] 0 0
s 7.028197248 _0_ AGT  --- 6 tcp 1540 [0 0 0 0] ------- [0:0 2:0 32 0] [3 0] 0 0
r 7.028197248 _0_ RTR  --- 6 tcp 1540 [0 0 0 0] ------- [0:0 2:0 32 0] [3 0] 0 0
s 7.028197248 _0_ RTR  --- 5 tcp 1540 [0 0 0 0] ------- [0:0 2:0 30 2] [2 0] 0 0
s 7.028197248 _0_ RTR  --- 6 tcp 1540 [0 0 0 0] ------- [0:0 2:0 30 2] [3 0] 0 0
r 7.028486728 _2_ MAC  --- 0 ACK 38 [0 2 0 0] 
s 7.028856248 _0_ MAC  --- 0 RTS 44 [58e 2 0 0] 
r 7.029208728 _2_ MAC  --- 0 RTS 44 [58e 2 0 0] 
s 7.029218728 _2_ MAC  --- 0 CTS 38 [454 0 0 0] 
r 7.029523208 _0_ MAC  --- 0 CTS 38 [454 0 0 0] 
s 7.029533208 _0_ MAC  --- 1 tcp 98 [13a 2 0 800] ------- [0:0 2:0 30 2] [0 0] 0 0
r 7.030317687 _2_ MAC  --- 1 tcp 40 [13a 2 0 800] ------- [0:0 2:0 30 2] [0 0] 1 0
s 7.030327687 _2_ MAC  --- 0 ACK 38 [0 0 0 0] 
r 7.030342687 _2_ AGT  --- 1 tcp 40 [13a 2 0 800] ------- [0:0 2:0 30 2] [0 0] 1 0
s 7.030342687 _2_ AGT  --- 7 ack 40 [0 0 0 0] ------- [2:0 0:0 32 0] [1 0] 0 0
r 7.030342687 _2_ RTR  --- 7 ack 40 [0 0 0 0] ------- [2:0 0:0 32 0] [1 0] 0 0
s 7.030342687 _2_ RTR  --- 7 ack 40 [0 0 0 0] ------- [2:0 0:0 30 0] [1 0] 0 0
r 7.030632167 _0_ MAC  --- 0 ACK 38 [0 0 0 0] 
s 7.031082167 _0_ MAC  --- 0 RTS 44 [346e 2 0 0] 
r 7.031434647 _2_ MAC  --- 0 RTS 44 [346e 2 0 0] 
s 7.031444647 _2_ MAC  --- 0 CTS 38 [3334 0 0 0] 
r 7.031749127 _0_ MAC  --- 0 CTS 38 [3334 0 0 0] 
s 7.031759127 _0_ MAC  --- 5 tcp 1598 [13a 2 0 800] ------- [0:0 2:0 30 2] [2 0] 0 0
r 7.044543607 _2_ MAC  --- 5 tcp 1540 [13a 2 0 800] ------- [0:0 2:0 30 2] [2 0] 1 0
s 7.044553607 _2_ MAC  --- 0 ACK 38 [0 0 0 0] 
r 7.044568607 _2_ AGT  --- 5 tcp 1540 [13a 2 0 800] ------- [0:0 2:0 30 2] [2 0] 1 0
s 7.044568607 _2_ AGT  --- 8 ack 40 [0 0 0 0] ------- [2:0 0:0 32 0] [2 0] 0 0
r 7.044568607 _2_ RTR  --- 8 ack 40 [0 0 0 0] ------- [2:0 0:0 32 0] [2 0] 0 0
s 7.044568607 _2_ RTR  --- 8 ack 40 [0 0 0 0] ------- [2:0 0:0 30 0] [2 0] 0 0
r 7.044858087 _0_ MAC  --- 0 ACK 38 [0 0 0 0] 
s 7.045087607 _2_ MAC  --- 0 RTS 44 [58e 0 2 0] 
r 7.045440087 _0_ MAC  --- 0 RTS 44 [58e 0 2 0] 
s 7.045450087 _0_ MAC  --- 0 CTS 38 [454 2 0 0] 
r 7.045754567 _2_ MAC  --- 0 CTS 38 [454 2 0 0] 
s 7.045764567 _2_ MAC  --- 7 ack 98 [13a 0 2 800] ------- [2:0 0:0 30 0] [1 0] 0 0
r 7.046549046 _0_ MAC  --- 7 ack 40 [13a 0 2 800] ------- [2:0 0:0 30 0] [1 0] 1 0
s 7.046559046 _0_ MAC  --- 0 ACK 38 [0 2 0 0] 
r 7.046574046 _0_ AGT  --- 7 ack 40 [13a 0 2 800] ------- [2:0 0:0 30 0] [1 0] 1 0
s 7.046574046 _0_ AGT  --- 9 tcp 1540 [0 0 0 0] ------- [0:0 2:0 32 0] [4 0] 0 0
r 7.046574046 _0_ RTR  --- 9 tcp 1540 [0 0 0 0] ------- [0:0 2:0 32 0] [4 0] 0 0
s 7.046574046 _0_ RTR  --- 9 tcp 1540 [0 0 0 0] ------- [0:0 2:0 30 2] [4 0] 0 0
r 7.046863526 _2_ MAC  --- 0 ACK 38 [0 2 0 0] 
s 7.047273046 _0_ MAC  --- 0 RTS 44 [346e 2 0 0] 
s 7.047273526 _2_ MAC  --- 0 RTS 44 [58e 0 2 0] 
s 7.049060006 _0_ MAC  --- 0 RTS 44 [346e 2 0 0] 
r 7.049412486 _2_ MAC  --- 0 RTS 44 [346e 2 0 0] 
s 7.049422486 _2_ MAC  --- 0 CTS 38 [3334 0 0 0] 
r 7.049726966 _0_ MAC  --- 0 CTS 38 [3334 0 0 0] 
s 7.049736966 _0_ MAC  --- 6 tcp 1598 [13a 2 0 800] ------- [0:0 2:0 30 2] [3 0] 0 0
r 7.062521446 _2_ MAC  --- 6 tcp 1540 [13a 2 0 800] ------- [0:0 2:0 30 2] [3 0] 1 0
s 7.062531446 _2_ MAC  --- 0 ACK 38 [0 0 0 0] 
r 7.062546446 _2_ AGT  --- 6 tcp 1540 [13a 2 0 800] ------- [0:0 2:0 30 2] [3 0] 1 0
s 7.062546446 _2_ AGT  --- 10 ack 40 [0 0 0 0] ------- [2:0 0:0 32 0] [3 0] 0 0
r 7.062546446 _2_ RTR  --- 10 ack 40 [0 0 0 0] ------- [2:0 0:0 32 0] [3 0] 0 0
s 7.062546446 _2_ RTR  --- 10 ack 40 [0 0 0 0] ------- [2:0 0:0 30 0] [3 0] 0 0
r 7.062835926 _0_ MAC  --- 0 ACK 38 [0 0 0 0] 
s 7.062985446 _2_ MAC  --- 0 RTS 44 [58e 0 2 0] 
r 7.063337926 _0_ MAC  --- 0 RTS 44 [58e 0 2 0] 
s 7.063347926 _0_ MAC  --- 0 CTS 38 [454 2 0 0] 
r 7.063652406 _2_ MAC  --- 0 CTS 38 [454 2 0 0] 
s 7.063662406 _2_ MAC  --- 8 ack 98 [13a 0 2 800] ------- [2:0 0:0 30 0] [2 0] 0 0
r 7.064446885 _0_ MAC  --- 8 ack 40 [13a 0 2 800] ------- [2:0 0:0 30 0] [2 0] 1 0
s 7.064456885 _0_ MAC  --- 0 ACK 38 [0 2 0 0] 
r 7.064471885 _0_ AGT  --- 8 ack 40 [13a 0 2 800] ------- [2:0 0:0 30 0] [2 0] 1 0
r 7.064761365 _2_ MAC  --- 0 ACK 38 [0 2 0 0] 
s 7.064951365 _2_ MAC  --- 0 RTS 44 [58e 0 2 0] 
r 7.065303845 _0_ MAC  --- 0 RTS 44 [58e 0 2 0] 
s 7.065313845 _0_ MAC  --- 0 CTS 38 [454 2 0 0] 
r 7.065618325 _2_ MAC  --- 0 CTS 38 [454 2 0 0] 
s 7.065628325 _2_ MAC  --- 10 ack 98 [13a 0 2 800] ------- [2:0 0:0 30 0] [3 0] 0 0
r 7.066412805 _0_ MAC  --- 10 ack 40 [13a 0 2 800] ------- [2:0 0:0 30 0] [3 0] 1 0
s 7.066422805 _0_ MAC  --- 0 ACK 38 [0 2 0 0] 
r 7.066437805 _0_ AGT  --- 10 ack 40 [13a 0 2 800] ------- [2:0 0:0 30 0] [3 0] 1 0
s 7.066437805 _0_ AGT  --- 11 tcp 1540 [0 0 0 0] ------- [0:0 2:0 32 0] [5 0] 0 0
r 7.066437805 _0_ RTR  --- 11 tcp 1540 [0 0 0 0] ------- [0:0 2:0 32 0] [5 0] 0 0
s 7.066437805 _0_ RTR  --- 11 tcp 1540 [0 0 0 0] ------- [0:0 2:0 30 2] [5 0] 0 0
r 7.066727285 _2_ MAC  --- 0 ACK 38 [0 2 0 0] 
s 7.066916805 _0_ MAC  --- 0 RTS 44 [346e 2 0 0] 
r 7.067269285 _2_ MAC  --- 0 RTS 44 [346e 2 0 0] 
s 7.067279285 _2_ MAC  --- 0 CTS 38 [3334 0 0 0] 
r 7.067583765 _0_ MAC  --- 0 CTS 38 [3334 0 0 0] 
s 7.067593765 _0_ MAC  --- 9 tcp 1598 [13a 2 0 800] ------- [0:0 2:0 30 2] [4 0] 0 0
r 7.080378245 _2_ MAC  --- 9 tcp 1540 [13a 2 0 800] ------- [0:0 2:0 30 2] [4 0] 1 0
s 7.080388245 _2_ MAC  --- 0 ACK 38 [0 0 0 0] 
r 7.080403245 _2_ AGT  --- 9 tcp 1540 [13a 2 0 800] ------- [0:0 2:0 30 2] [4 0] 1 0
s 7.080403245 _2_ AGT  --- 12 ack 40 [0 0 0 0] ------- [2:0 0:0 32 0] [4 0] 0 0
r 7.080403245 _2_ RTR  --- 12 ack 40 [0 0 0 0] ------- [2:0 0:0 32 0] [4 0] 0 0
s 7.080403245 _2_ RTR  --- 12 ack 40 [0 0 0 0] ------- [2:0 0:0 30 0] [4 0] 0 0
r 7.080692724 _0_ MAC  --- 0 ACK 38 [0 0 0 0] 
s 7.080942724 _0_ MAC  --- 0 RTS 44 [346e 2 0 0] 
r 7.081295204 _2_ MAC  --- 0 RTS 44 [346e 2 0 0] 
s 7.081305204 _2_ MAC  --- 0 CTS 38 [3334 0 0 0] 
r 7.081609684 _0_ MAC  --- 0 CTS 38 [3334 0 0 0] 
s 7.081619684 _0_ MAC  --- 11 tcp 1598 [13a 2 0 800] ------- [0:0 2:0 30 2] [5 0] 0 0
r 7.094404164 _2_ MAC  --- 11 tcp 1540 [13a 2 0 800] ------- [0:0 2:0 30 2] [5 0] 1 0
s 7.094414164 _2_ MAC  --- 0 ACK 38 [0 0 0 0] 
r 7.094429164 _2_ AGT  --- 11 tcp 1540 [13a 2 0 800] ------- [0:0 2:0 30 2] [5 0] 1 0
s 7.094429164 _2_ AGT  --- 13 ack 40 [0 0 0 0] ------- [2:0 0:0 32 0] [5 0] 0 0
r 7.094429164 _2_ RTR  --- 13 ack 40 [0 0 0 0] ------- [2:0 0:0 32 0] [5 0] 0 0
s 7.094429164 _2_ RTR  --- 13 ack 40 [0 0 0 0] ------- [2:0 0:0 30 0] [5 0] 0 0
r 7.094718644 _0_ MAC  --- 0 ACK 38 [0 0 0 0] 
s 7.094848164 _2_ MAC  --- 0 RTS 44 [58e 0 2 0] 
r 7.095200644 _0_ MAC  --- 0 RTS 44 [58e 0 2 0] 
s 7.095210644 _0_ MAC  --- 0 CTS 38 [454 2 0 0] 
r 7.095515124 _2_ MAC  --- 0 CTS 38 [454 2 0 0] 
s 7.095525124 _2_ MAC  --- 12 ack 98 [13a 0 2 800] ------- [2:0 0:0 30 0] [4 0] 0 0
r 7.096309604 _0_ MAC  --- 12 ack 40 [13a 0 2 800] ------- [2:0 0:0 30 0] [4 0] 1 0
s 7.096319604 _0_ MAC  --- 0 ACK 38 [0 2 0 0] 
r 7.096334604 _0_ AGT  --- 12 ack 40 [13a 0 2 800] ------- [2:0 0:0 30 0] [4 0] 1 0
s 7.096334604 _0_ AGT  --- 14 tcp 1540 [0 0 0 0] ------- [0:0 2:0 32 0] [6 0] 0 0
r 7.096334604 _0_ RTR  --- 14 tcp 1540 [0 0 0 0] ------- [0:0 2:0 32 0] [6 0] 0 0
s 7.096334604 _0_ AGT  --- 15 tcp 1540 [0 0 0 0] ------- [0:0 2:0 32 0] [7 0] 0 0
r 7.096334604 _0_ RTR  --- 15 tcp 1540 [0 0 0 0] ------- [0:0 2:0 32 0] [7 0] 0 0
s 7.096334604 _0_ RTR  --- 14 tcp 1540 [0 0 0 0] ------- [0:0 2:0 30 2] [6 0] 0 0
s 7.096334604 _0_ RTR  --- 15 tcp 1540 [0 0 0 0] ------- [0:0 2:0 30 2] [7 0] 0 0
r 7.096624084 _2_ MAC  --- 0 ACK 38 [0 2 0 0] 
s 7.096693604 _0_ MAC  --- 0 RTS 44 [346e 2 0 0] 
r 7.097046084 _2_ MAC  --- 0 RTS 44 [346e 2 0 0] 
s 7.097056084 _2_ MAC  --- 0 CTS 38 [3334 0 0 0] 
r 7.097360563 _0_ MAC  --- 0 CTS 38 [3334 0 0 0] 
s 7.097370563 _0_ MAC  --- 14 tcp 1598 [13a 2 0 800] ------- [0:0 2:0 30 2] [6 0] 0 0
r 7.110155043 _2_ MAC  --- 14 tcp 1540 [13a 2 0 800] ------- [0:0 2:0 30 2] [6 0] 1 0
s 7.110165043 _2_ MAC  --- 0 ACK 38 [0 0 0 0] 
r 7.110180043 _2_ AGT  --- 14 tcp 1540 [13a 2 0 800] ------- [0:0 2:0 30 2] [6 0] 1 0
s 7.110180043 _2_ AGT  --- 16 ack 40 [0 0 0 0] ------- [2:0 0:0 32 0] [6 0] 0 0
r 7.110180043 _2_ RTR  --- 16 ack 40 [0 0 0 0] ------- [2:0 0:0 32 0] [6 0] 0 0
s 7.110180043 _2_ RTR  --- 16 ack 40 [0 0 0 0] ------- [2:0 0:0 30 0] [6 0] 0 0
r 7.110469523 _0_ MAC  --- 0 ACK 38 [0 0 0 0] 
s 7.110739523 _0_ MAC  --- 0 RTS 44 [346e 2 0 0] 
r 7.111092003 _2_ MAC  --- 0 RTS 44 [346e 2 0 0] 
s 7.111102003 _2_ MAC  --- 0 CTS 38 [3334 0 0 0] 
r 7.111406483 _0_ MAC  --- 0 CTS 38 [3334 0 0 0] 
s 7.111416483 _0_ MAC  --- 15 tcp 1598 [13a 2 0 800] ------- [0:0 2:0 30 2] [7 0] 0 0
r 7.124200963 _2_ MAC  --- 15 tcp 1540 [13a 2 0 800] ------- [0:0 2:0 30 2] [7 0] 1 0
s 7.124210963 _2_ MAC  --- 0 ACK 38 [0 0 0 0] 
r 7.124225963 _2_ AGT  --- 15 tcp 1540 [13a 2 0 800] ------- [0:0 2:0 30 2] [7 0] 1 0
s 7.124225963 _2_ AGT  --- 17 ack 40 [0 0 0 0] ------- [2:0 0:0 32 0] [7 0] 0 0
r 7.124225963 _2_ RTR  --- 17 ack 40 [0 0 0 0] ------- [2:0 0:0 32 0] [7 0] 0 0
s 7.124225963 _2_ RTR  --- 17 ack 40 [0 0 0 0] ------- [2:0 0:0 30 0] [7 0] 0 0
r 7.124515443 _0_ MAC  --- 0 ACK 38 [0 0 0 0] 
s 7.124844963 _2_ MAC  --- 0 RTS 44 [58e 0 2 0] 
r 7.125197443 _0_ MAC  --- 0 RTS 44 [58e 0 2 0] 
s 7.125207443 _0_ MAC  --- 0 CTS 38 [454 2 0 0] 
r 7.125511923 _2_ MAC  --- 0 CTS 38 [454 2 0 0] 
s 7.125521923 _2_ MAC  --- 13 ack 98 [13a 0 2 800] ------- [2:0 0:0 30 0] [5 0] 0 0
r 7.126306402 _0_ MAC  --- 13 ack 40 [13a 0 2 800] ------- [2:0 0:0 30 0] [5 0] 1 0
s 7.126316402 _0_ MAC  --- 0 ACK 38 [0 2 0 0] 
r 7.126331402 _0_ AGT  --- 13 ack 40 [13a 0 2 800] ------- [2:0 0:0 30 0] [5 0] 1 0
s 7.126331402 _0_ AGT  --- 18 tcp 1540 [0 0 0 0] ------- [0:0 2:0 32 0] [8 0] 0 0
r 7.126331402 _0_ RTR  --- 18 tcp 1540 [0 0 0 0] ------- [0:0 2:0 32 0] [8 0] 0 0
s 7.126331402 _0_ RTR  --- 18 tcp 1540 [0 0 0 0] ------- [0:0 2:0 30 2] [8 0] 0 0
r 7.126620882 _2_ MAC  --- 0 ACK 38 [0 2 0 0] 
s 7.126730882 _2_ MAC  --- 0 RTS 44 [58e 0 2 0] 
r 7.127083362 _0_ MAC  --- 0 RTS 44 [58e 0 2 0] 
s 7.127093362 _0_ MAC  --- 0 CTS 38 [454 2 0 0] 
r 7.127397842 _2_ MAC  --- 0 CTS 38 [454 2 0 0] 
s 7.127407842 _2_ MAC  --- 16 ack 98 [13a 0 2 800] ------- [2:0 0:0 30 0] [6 0] 0 0
r 7.128192322 _0_ MAC  --- 16 ack 40 [13a 0 2 800] ------- [2:0 0:0 30 0] [6 0] 1 0
s 7.128202322 _0_ MAC  --- 0 ACK 38 [0 2 0 0] 
r 7.128217322 _0_ AGT  --- 16 ack 40 [13a 0 2 800] ------- [2:0 0:0 30 0] [6 0] 1 0
s 7.128217322 _0_ AGT  --- 19 tcp 1540 [0 0 0 0] ------- [0:0 2:0 32 0] [9 0] 0 0
r 7.128217322 _0_ RTR  --- 19 tcp 1540 [0 0 0 0] ------- [0:0 2:0 32 0] [9 0] 0 0
s 7.128217322 _0_ RTR  --- 19 tcp 1540 [0 0 0 0] ------- [0:0 2:0 30 2] [9 0] 0 0
r 7.128506802 _2_ MAC  --- 0 ACK 38 [0 2 0 0] 
s 7.128676802 _2_ MAC  --- 0 RTS 44 [58e 0 2 0] 
r 7.129029282 _0_ MAC  --- 0 RTS 44 [58e 0 2 0] 
s 7.129039282 _0_ MAC  --- 0 CTS 38 [454 2 0 0] 
r 7.129343762 _2_ MAC  --- 0 CTS 38 [454 2 0 0] 
s 7.129353762 _2_ MAC  --- 17 ack 98 [13a 0 2 800] ------- [2:0 0:0 30 0] [7 0] 0 0
r 7.130138241 _0_ MAC  --- 17 ack 40 [13a 0 2 800] ------- [2:0 0:0 30 0] [7 0] 1 0
s 7.130148241 _0_ MAC  --- 0 ACK 38 [0 2 0 0] 
r 7.130163241 _0_ AGT  --- 17 ack 40 [13a 0 2 800] ------- [2:0 0:0 30 0] [7 0] 1 0
s 7.130163241 _0_ AGT  --- 20 tcp 1540 [0 0 0 0] ------- [0:0 2:0 32 0] [10 0] 0 0
r 7.130163241 _0_ RTR  --- 20 tcp 1540 [0 0 0 0] ------- [0:0 2:0 32 0] [10 0] 0 0
s 7.130163241 _0_ AGT  --- 21 tcp 1540 [0 0 0 0] ------- [0:0 2:0 32 0] [11 0] 0 0
r 7.130163241 _0_ RTR  --- 21 tcp 1540 [0 0 0 0] ------- [0:0 2:0 32 0] [11 0] 0 0
s 7.130163241 _0_ RTR  --- 20 tcp 1540 [0 0 0 0] ------- [0:0 2:0 30 2] [10 0] 0 0
s 7.130163241 _0_ RTR  --- 21 tcp 1540 [0 0 0 0] ------- [0:0 2:0 30 2] [11 0] 0 0
r 7.130452721 _2_ MAC  --- 0 ACK 38 [0 2 0 0] 
s 7.130902241 _0_ MAC  --- 0 RTS 44 [346e 2 0 0] 
r 7.131254721 _2_ MAC  --- 0 RTS 44 [346e 2 0 0] 
s 7.131264721 _2_ MAC  --- 0 CTS 38 [3334 0 0 0] 
r 7.131569201 _0_ MAC  --- 0 CTS 38 [3334 0 0 0] 
s 7.131579201 _0_ MAC  --- 18 tcp 1598 [13a 2 0 800] ------- [0:0 2:0 30 2] [8 0] 0 0
r 7.144363681 _2_ MAC  --- 18 tcp 1540 [13a 2 0 800] ------- [0:0 2:0 30 2] [8 0] 1 0
s 7.144373681 _2_ MAC  --- 0 ACK 38 [0 0 0 0] 
r 7.144388681 _2_ AGT  --- 18 tcp 1540 [13a 2 0 800] ------- [0:0 2:0 30 2] [8 0] 1 0
s 7.144388681 _2_ AGT  --- 22 ack 40 [0 0 0 0] ------- [2:0 0:0 32 0] [8 0] 0 0
r 7.144388681 _2_ RTR  --- 22 ack 40 [0 0 0 0] ------- [2:0 0:0 32 0] [8 0] 0 0
s 7.144388681 _2_ RTR  --- 22 ack 40 [0 0 0 0] ------- [2:0 0:0 30 0] [8 0] 0 0
r 7.144678161 _0_ MAC  --- 0 ACK 38 [0 0 0 0] 
s 7.145008161 _0_ MAC  --- 0 RTS 44 [346e 2 0 0] 
r 7.145360641 _2_ MAC  --- 0 RTS 44 [346e 2 0 0] 
s 7.145370641 _2_ MAC  --- 0 CTS 38 [3334 0 0 0] 
r 7.145675121 _0_ MAC  --- 0 CTS 38 [3334 0 0 0] 
s 7.145685121 _0_ MAC  --- 19 tcp 1598 [13a 2 0 800] ------- [0:0 2:0 30 2] [9 0] 0 0
r 7.158469601 _2_ MAC  --- 19 tcp 1540 [13a 2 0 800] ------- [0:0 2:0 30 2] [9 0] 1 0
s 7.158479601 _2_ MAC  --- 0 ACK 38 [0 0 0 0] 
r 7.158494601 _2_ AGT  --- 19 tcp 1540 [13a 2 0 800] ------- [0:0 2:0 30 2] [9 0] 1 0
s 7.158494601 _2_ AGT  --- 23 ack 40 [0 0 0 0] ------- [2:0 0:0 32 0] [9 0] 0 0
r 7.158494601 _2_ RTR  --- 23 ack 40 [0 0 0 0] ------- [2:0 0:0 32 0] [9 0] 0 0
s 7.158494601 _2_ RTR  --- 23 ack 40 [0 0 0 0] ------- [2:0 0:0 30 0] [9 0] 0 0
r 7.158784080 _0_ MAC  --- 0 ACK 38 [0 0 0 0] 
s 7.159014080 _0_ MAC  --- 0 RTS 44 [346e 2 0 0] 
r 7.159366560 _2_ MAC  --- 0 RTS 44 [346e 2 0 0] 
s 7.159376560 _2_ MAC  --- 0 CTS 38 [3334 0 0 0] 
r 7.159681040 _0_ MAC  --- 0 CTS 38 [3334 0 0 0] 
s 7.159691040 _0_ MAC  --- 20 tcp 1598 [13a 2 0 800] ------- [0:0 2:0 30 2] [10 0] 0 0
r 7.172475520 _2_ MAC  --- 20 tcp 1540 [13a 2 0 800] ------- [0:0 2:0 30 2] [10 0] 1 0
s 7.172485520 _2_ MAC  --- 0 ACK 38 [0 0 0 0] 
r 7.172500520 _2_ AGT  --- 20 tcp 1540 [13a 2 0 800] ------- [0:0 2:0 30 2] [10 0] 1 0
s 7.172500520 _2_ AGT  --- 24 ack 40 [0 0 0 0] ------- [2:0 0:0 32 0] [10 0] 0 0
r 7.172500520 _2_ RTR  --- 24 ack 40 [0 0 0 0] ------- [2:0 0:0 32 0] [10 0] 0 0
s 7.172500520 _2_ RTR  --- 24 ack 40 [0 0 0 0] ------- [2:0 0:0 30 0] [10 0] 0 0
r 7.172790000 _0_ MAC  --- 0 ACK 38 [0 0 0 0] 
s 7.172879520 _2_ MAC  --- 0 RTS 44 [58e 0 2 0] 
r 7.173232000 _0_ MAC  --- 0 RTS 44 [58e 0 2 0] 
s 7.173242000 _0_ MAC  --- 0 CTS 38 [454 2 0 0] 
r 7.173546480 _2_ MAC  --- 0 CTS 38 [454 2 0 0] 
s 7.173556480 _2_ MAC  --- 22 ack 98 [13a 0 2 800] ------- [2:0 0:0 30 0] [8 0] 0 0
r 7.174340960 _0_ MAC  --- 22 ack 40 [13a 0 2 800] ------- [2:0 0:0 30 0] [8 0] 1 0
s 7.174350960 _0_ MAC  --- 0 ACK 38 [0 2 0 0] 
r 7.174365960 _0_ AGT  --- 22 ack 40 [13a 0 2 800] ------- [2:0 0:0 30 0] [8 0] 1 0
s 7.174365960 _0_ AGT  --- 25 tcp 1540 [0 0 0 0] ------- [0:0 2:0 32 0] [12 0] 0 0
r 7.174365960 _0_ RTR  --- 25 tcp 1540 [0 0 0 0] ------- [0:0 2:0 32 0] [12 0] 0 0
s 7.174365960 _0_ RTR  --- 25 tcp 1540 [0 0 0 0] ------- [0:0 2:0 30 2] [12 0] 0 0
r 7.174655439 _2_ MAC  --- 0 ACK 38 [0 2 0 0] 
s 7.174944960 _0_ MAC  --- 0 RTS 44 [346e 2 0 0] 
r 7.175297439 _2_ MAC  --- 0 RTS 44 [346e 2 0 0] 
s 7.175307439 _2_ MAC  --- 0 CTS 38 [3334 0 0 0] 
r 7.175611919 _0_ MAC  --- 0 CTS 38 [3334 0 0 0] 
s 7.175621919 _0_ MAC  --- 21 tcp 1598 [13a 2 0 800] ------- [0:0 2:0 30 2] [11 0] 0 0
r 7.188406399 _2_ MAC  --- 21 tcp 1540 [13a 2 0 800] ------- [0:0 2:0 30 2] [11 0] 1 0
s 7.188416399 _2_ MAC  --- 0 ACK 38 [0 0 0 0] 
r 7.188431399 _2_ AGT  --- 21 tcp 1540 [13a 2 0 800] ------- [0:0 2:0 30 2] [11 0] 1 0
s 7.188431399 _2_ AGT  --- 26 ack 40 [0 0 0 0] ------- [2:0 0:0 32 0] [11 0] 0 0
r 7.188431399 _2_ RTR  --- 26 ack 40 [0 0 0 0] ------- [2:0 0:0 32 0] [11 0] 0 0
s 7.188431399 _2_ RTR  --- 26 ack 40 [0 0 0 0] ------- [2:0 0:0 30 0] [11 0] 0 0
r 7.188720879 _0_ MAC  --- 0 ACK 38 [0 0 0 0] 
s 7.188770879 _0_ MAC  --- 0 RTS 44 [346e 2 0 0] 
r 7.189123359 _2_ MAC  --- 0 RTS 44 [346e 2 0 0] 
s 7.189133359 _2_ MAC  --- 0 CTS 38 [3334 0 0 0] 
r 7.189437839 _0_ MAC  --- 0 CTS 38 [3334 0 0 0] 
s 7.189447839 _0_ MAC  --- 25 tcp 1598 [13a 2 0 800] ------- [0:0 2:0 30 2] [12 0] 0 0
r 7.202232319 _2_ MAC  --- 25 tcp 1540 [13a 2 0 800] ------- [0:0 2:0 30 2] [12 0] 1 0
s 7.202242319 _2_ MAC  --- 0 ACK 38 [0 0 0 0] 
r 7.202257319 _2_ AGT  --- 25 tcp 1540 [13a 2 0 800] ------- [0:0 2:0 30 2] [12 0] 1 0
s 7.202257319 _2_ AGT  --- 27 ack 40 [0 0 0 0] ------- [2:0 0:0 32 0] [12 0] 0 0
r 7.202257319 _2_ RTR  --- 27 ack 40 [0 0 0 0] ------- [2:0 0:0 32 0] [12 0] 0 0
s 7.202257319 _2_ RTR  --- 27 ack 40 [0 0 0 0] ------- [2:0 0:0 30 0] [12 0] 0 0
r 7.202546799 _0_ MAC  --- 0 ACK 38 [0 0 0 0] 
s 7.202856319 _2_ MAC  --- 0 RTS 44 [58e 0 2 0] 
r 7.203208799 _0_ MAC  --- 0 RTS 44 [58e 0 2 0] 
s 7.203218799 _0_ MAC  --- 0 CTS 38 [454 2 0 0] 
r 7.203523278 _2_ MAC  --- 0 CTS 38 [454 2 0 0] 
s 7.203533278 _2_ MAC  --- 23 ack 98 [13a 0 2 800] ------- [2:0 0:0 30 0] [9 0] 0 0
r 7.204317758 _0_ MAC  --- 23 ack 40 [13a 0 2 800] ------- [2:0 0:0 30 0] [9 0] 1 0
s 7.204327758 _0_ MAC  --- 0 ACK 38 [0 2 0 0] 
r 7.204342758 _0_ AGT  --- 23 ack 40 [13a 0 2 800] ------- [2:0 0:0 30 0] [9 0] 1 0
s 7.204342758 _0_ AGT  --- 28 tcp 1540 [0 0 0 0] ------- [0:0 2:0 32 0] [13 0] 0 0
r 7.204342758 _0_ RTR  --- 28 tcp 1540 [0 0 0 0] ------- [0:0 2:0 32 0] [13 0] 0 0
s 7.204342758 _0_ RTR  --- 28 tcp 1540 [0 0 0 0] ------- [0:0 2:0 30 2] [13 0] 0 0
r 7.204632238 _2_ MAC  --- 0 ACK 38 [0 2 0 0] 
s 7.204842238 _2_ MAC  --- 0 RTS 44 [58e 0 2 0] 
r 7.205194718 _0_ MAC  --- 0 RTS 44 [58e 0 2 0] 
s 7.205204718 _0_ MAC  --- 0 CTS 38 [454 2 0 0] 
r 7.205509198 _2_ MAC  --- 0 CTS 38 [454 2 0 0] 
s 7.205519198 _2_ MAC  --- 24 ack 98 [13a 0 2 800] ------- [2:0 0:0 30 0] [10 0] 0 0
r 7.206303678 _0_ MAC  --- 24 ack 40 [13a 0 2 800] ------- [2:0 0:0 30 0] [10 0] 1 0
s 7.206313678 _0_ MAC  --- 0 ACK 38 [0 2 0 0] 
r 7.206328678 _0_ AGT  --- 24 ack 40 [13a 0 2 800] ------- [2:0 0:0 30 0] [10 0] 1 0
s 7.206328678 _0_ AGT  --- 29 tcp 1540 [0 0 0 0] ------- [0:0 2:0 32 0] [14 0] 0 0
r 7.206328678 _0_ RTR  --- 29 tcp 1540 [0 0 0 0] ------- [0:0 2:0 32 0] [14 0] 0 0
s 7.206328678 _0_ RTR  --- 29 tcp 1540 [0 0 0 0] ------- [0:0 2:0 30 2] [14 0] 0 0
r 7.206618158 _2_ MAC  --- 0 ACK 38 [0 2 0 0] 
s 7.206827678 _0_ MAC  --- 0 RTS 44 [346e 2 0 0] 
r 7.207180158 _2_ MAC  --- 0 RTS 44 [346e 2 0 0] 
s 7.207190158 _2_ MAC  --- 0 CTS 38 [3334 0 0 0] 
r 7.207494638 _0_ MAC  --- 0 CTS 38 [3334 0 0 0] 
s 7.207504638 _0_ MAC  --- 28 tcp 1598 [13a 2 0 800] ------- [0:0 2:0 30 2] [13 0] 0 0
r 7.220289117 _2_ MAC  --- 28 tcp 1540 [13a 2 0 800] ------- [0:0 2:0 30 2] [13 0] 1 0
s 7.220299117 _2_ MAC  --- 0 ACK 38 [0 0 0 0] 
r 7.220314117 _2_ AGT  --- 28 tcp 1540 [13a 2 0 800] ------- [0:0 2:0 30 2] [13 0] 1 0
s 7.220314117 _2_ AGT  --- 30 ack 40 [0 0 0 0] ------- [2:0 0:0 32 0] [13 0] 0 0
r 7.220314117 _2_ RTR  --- 30 ack 40 [0 0 0 0] ------- [2:0 0:0 32 0] [13 0] 0 0
s 7.220314117 _2_ RTR  --- 30 ack 40 [0 0 0 0] ------- [2:0 0:0 30 0] [13 0] 0 0
r 7.220603597 _0_ MAC  --- 0 ACK 38 [0 0 0 0] 
s 7.220713117 _2_ MAC  --- 0 RTS 44 [58e 0 2 0] 
r 7.221065597 _0_ MAC  --- 0 RTS 44 [58e 0 2 0] 
s 7.221075597 _0_ MAC  --- 0 CTS 38 [454 2 0 0] 
r 7.221380077 _2_ MAC  --- 0 CTS 38 [454 2 0 0] 
s 7.221390077 _2_ MAC  --- 26 ack 98 [13a 0 2 800] ------- [2:0 0:0 30 0] [11 0] 0 0
r 7.222174557 _0_ MAC  --- 26 ack 40 [13a 0 2 800] ------- [2:0 0:0 30 0] [11 0] 1 0
s 7.222184557 _0_ MAC  --- 0 ACK 38 [0 2 0 0] 
r 7.222199557 _0_ AGT  --- 26 ack 40 [13a 0 2 800] ------- [2:0 0:0 30 0] [11 0] 1 0
s 7.222199557 _0_ AGT  --- 31 tcp 1540 [0 0 0 0] ------- [0:0 2:0 32 0] [15 0] 0 0
r 7.222199557 _0_ RTR  --- 31 tcp 1540 [0 0 0 0] ------- [0:0 2:0 32 0] [15 0] 0 0
s 7.222199557 _0_ RTR  --- 31 tcp 1540 [0 0 0 0] ------- [0:0 2:0 30 2] [15 0] 0 0
r 7.222489037 _2_ MAC  --- 0 ACK 38 [0 2 0 0] 
s 7.222558557 _0_ MAC  --- 0 RTS 44 [346e 2 0 0] 
r 7.222911037 _2_ MAC  --- 0 RTS 44 [346e 2 0 0] 
s 7.222921037 _2_ MAC  --- 0 CTS 38 [3334 0 0 0] 
r 7.223225517 _0_ MAC  --- 0 CTS 38 [3334 0 0 0] 
s 7.223235517 _0_ MAC  --- 29 tcp 1598 [13a 2 0 800] ------- [0:0 2:0 30 2] [14 0] 0 0
r 7.236019997 _2_ MAC  --- 29 tcp 1540 [13a 2 0 800] ------- [0:0 2:0 30 2] [14 0] 1 0
s 7.236029997 _2_ MAC  --- 0 ACK 38 [0 0 0 0] 
r 7.236044997 _2_ AGT  --- 29 tcp 1540 [13a 2 0 800] ------- [0:0 2:0 30 2] [14 0] 1 0
s 7.236044997 _2_ AGT  --- 32 ack 40 [0 0 0 0] ------- [2:0 0:0 32 0] [14 0] 0 0
r 7.236044997 _2_ RTR  --- 32 ack 40 [0 0 0 0] ------- [2:0 0:0 32 0] [14 0] 0 0
s 7.236044997 _2_ RTR  --- 32 ack 40 [0 0 0 0] ------- [2:0 0:0 30 0] [14 0] 0 0
r 7.236334477 _0_ MAC  --- 0 ACK 38 [0 0 0 0] 
s 7.236384477 _0_ MAC  --- 0 RTS 44 [346e 2 0 0] 
r 7.236736956 _2_ MAC  --- 0 RTS 44 [346e 2 0 0] 
s 7.236746956 _2_ MAC  --- 0 CTS 38 [3334 0 0 0] 
r 7.237051436 _0_ MAC  --- 0 CTS 38 [3334 0 0 0] 
s 7.237061436 _0_ MAC  --- 31 tcp 1598 [13a 2 0 800] ------- [0:0 2:0 30 2] [15 0] 0 0
r 7.249845916 _2_ MAC  --- 31 tcp 1540 [13a 2 0 800] ------- [0:0 2:0 30 2] [15 0] 1 0
s 7.249855916 _2_ MAC  --- 0 ACK 38 [0 0 0 0] 
r 7.249870916 _2_ AGT  --- 31 tcp 1540 [13a 2 0 800] ------- [0:0 2:0 30 2] [15 0] 1 0
s 7.249870916 _2_ AGT  --- 33 ack 40 [0 0 0 0] ------- [2:0 0:0 32 0] [15 0] 0 0
r 7.249870916 _2_ RTR  --- 33 ack 40 [0 0 0 0] ------- [2:0 0:0 32 0] [15 0] 0 0
s 7.249870916 _2_ RTR  --- 33 ack 40 [0 0 0 0] ------- [2:0 0:0 30 0] [15 0] 0 0
r 7.250160396 _0_ MAC  --- 0 ACK 38 [0 0 0 0] 
s 7.250489916 _2_ MAC  --- 0 RTS 44 [58e 0 2 0] 
r 7.250842396 _0_ MAC  --- 0 RTS 44 [58e 0 2 0] 
s 7.250852396 _0_ MAC  --- 0 CTS 38 [454 2 0 0] 
r 7.251156876 _2_ MAC  --- 0 CTS 38 [454 2 0 0] 
s 7.251166876 _2_ MAC  --- 27 ack 98 [13a 0 2 800] ------- [2:0 0:0 30 0] [12 0] 0 0
r 7.251951356 _0_ MAC  --- 27 ack 40 [13a 0 2 800] ------- [2:0 0:0 30 0] [12 0] 1 0
s 7.251961356 _0_ MAC  --- 0 ACK 38 [0 2 0 0] 
r 7.251976356 _0_ AGT  --- 27 ack 40 [13a 0 2 800] ------- [2:0 0:0 30 0] [12 0] 1 0
s 7.251976356 _0_ AGT  --- 34 tcp 1540 [0 0 0 0] ------- [0:0 2:0 32 0] [16 0] 0 0
r 7.251976356 _0_ RTR  --- 34 tcp 1540 [0 0 0 0] ------- [0:0 2:0 32 0] [16 0] 0 0
s 7.251976356 _0_ AGT  --- 35 tcp 1540 [0 0 0 0] ------- [0:0 2:0 32 0] [17 0] 0 0
r 7.251976356 _0_ RTR  --- 35 tcp 1540 [0 0 0 0] ------- [0:0 2:0 32 0] [17 0] 0 0
s 7.251976356 _0_ RTR  --- 34 tcp 1540 [0 0 0 0] ------- [0:0 2:0 30 2] [16 0] 0 0
s 7.251976356 _0_ RTR  --- 35 tcp 1540 [0 0 0 0] ------- [0:0 2:0 30 2] [17 0] 0 0
r 7.252265836 _2_ MAC  --- 0 ACK 38 [0 2 0 0] 